#\#CIF_2.0
# Created by the Bilbao Crystallographic Server
# http://www.cryst.ehu.es
# Date: 20/11/2020


data_5yOhtAoR
_audit_creation_date            2020-11-20
_audit_creation_method          "Bilbao Crystallographic Server"

_citation_journal_abbrev        "Inorg. Chem."
_citation_journal_volume        57
_citation_page_first            2546
_citation_page_last             2557
_citation_article_id            .
_citation_year                  2018
_citation_DOI                   10.1021/acs.inorgchem.7b02901

loop_
_citation_author_name
"P. Lemoine"
"A. Verniere"
"M. Pasturel"
"G. Venturini"
"B. Malaman"



_atomic_positions_source_database_code_ICSD  .
_atomic_positions_source_other               .

_transition_temperature  30
_experiment_temperature  2

loop_
_irrep_id
_irrep_dimension
_irrep_small_dimension
_irrep_direction_type
_irrep_action
_irrep_modes_number
_irrep_presence
mM2+  1  1  .  primary  3  .

_exptl_crystal_magnetic_properties_details
;
NPD
;

_active_magnetic_irreps_details
;
1k magnetic structure
k-maximal magnetic symmetry
1-dim irrep as primary
;

_parent_space_group.name_H-M_alt  'C 2/m'
_parent_space_group.IT_number                       12
_parent_space_group.transform_Pp_abc  'a,b,c;0,0,0'

loop_
_parent_propagation_vector.id
_parent_propagation_vector.kxkykz
k1 [1 0 1/2]

_parent_space_group.child_transform_Pp_abc  'a,b,2c;0,0,0'
_space_group_magn.transform_BNS_Pp_abc  'a-c,b,c;0,0,0'



_space_group_magn.number_BNS  15.90
_space_group_magn.name_BNS  "C_c 2/c"
_cell_length_a             5.54000
_cell_length_b             5.46800
_cell_length_c             11.66000
_cell_angle_alpha          90.00
_cell_angle_beta           116.24
_cell_angle_gamma          90.00

loop_
_space_group_symop_magn_operation.id
_space_group_symop_magn_operation.xyz
1 x,y,z,+1
2 -x,y,-z+1/2,+1
3 -x,-y,-z,+1
4 x,-y,z+1/2,+1

loop_
_space_group_symop_magn_centering.id
_space_group_symop_magn_centering.xyz
1 x,y,z,+1
2 x+1/2,y+1/2,z+1/2,+1
3 x,y,z+1/2,-1
4 x+1/2,y+1/2,z,-1

loop_
_atom_site_label
_atom_site_type_symbol
_atom_site_fract_x
_atom_site_fract_y
_atom_site_fract_z
U1 U 0.00000 0.00000 0.00000
Cr1 Cr 0.00000 0.21900 0.25000
Si1 Si 0.40000 0.00000 0.38700

loop_
_atom_site_moment.label
_atom_site_moment.crystalaxis_x
_atom_site_moment.crystalaxis_y
_atom_site_moment.crystalaxis_z
_atom_site_moment.symmform
_atom_site_moment.magnitude
U1 0.33 0.00000 0.74 mx,0,mz  0.66(5)
Cr1 0.00000 0.00000 0.00000 0,my,0  0.0

