#\#CIF_2.0
# Created by the Bilbao Crystallographic Server
# http://www.cryst.ehu.es
# Date: 03/02/2020


data_5yOhtAoR
_audit_creation_date            2020-02-03
_audit_creation_method          "Bilbao Crystallographic Server"

_citation_journal_abbrev        "PHYSICAL REVIEW MATERIALS"
_citation_journal_volume        3
_citation_page_first            ?
_citation_page_last             ?
_citation_article_id            124406
_citation_year                  2019
_citation_DOI                   10.1103/PhysRevMaterials.3.124406

loop_
_citation_author_name
"Y. Haraguchi"
"K. Nawa"
"C. Michioka"
"H. Ueda"
"A. Matsuo"
"K. Kindo"
"M. Avdeev"
"T.J. Sato"
"K. Yoshimura"




_atomic_positions_source_database_code_ICSD  .
_atomic_positions_source_other               .

_transition_temperature  37.9
_experiment_temperature  3

loop_
_irrep_id
_irrep_dimension
_irrep_small_dimension
_irrep_direction_type
_irrep_action
_irrep_modes_number
_irrep_presence
mGM1-  1  1  .  primary  1  .

_exptl_crystal_magnetic_properties_details
;
NPD
The structures, with similar features and a smaller Mn magnetic moment, are also reported for two higher temperatures (in the same phase).
;

_active_magnetic_irreps_details
;
1k magnetic structure
k-maximal magnetic symmetry (2 possible)
1-dim irrep active as primary irrep
;

_parent_space_group.name_H-M_alt  'R -3'
_parent_space_group.IT_number                       148
_parent_space_group.transform_Pp_abc  'a,b,c;0,0,0'

loop_
_parent_propagation_vector.id
_parent_propagation_vector.kxkykz
k1 [0 0 0]

_parent_space_group.child_transform_Pp_abc  'a,b,c;0,0,0'
_space_group_magn.transform_BNS_Pp_abc  'a,b,c;0,0,0'



_space_group_magn.number_BNS  148.19
_space_group_magn.name_BNS  "R -3'"
_cell_length_a             4.93640(3)
_cell_length_b             4.93640
_cell_length_c             13.7073(1)
_cell_angle_alpha          90.00
_cell_angle_beta           90.00
_cell_angle_gamma          120.00

loop_
_space_group_symop_magn_operation.id
_space_group_symop_magn_operation.xyz
1 x,y,z,+1
2 -y,x-y,z,+1
3 -x+y,-x,z,+1
4 -x,-y,-z,-1
5 y,-x+y,-z,-1
6 x-y,x,-z,-1

loop_
_space_group_symop_magn_centering.id
_space_group_symop_magn_centering.xyz
1 x,y,z,+1
2 x+1/3,y+2/3,z+2/3,+1
3 x+2/3,y+1/3,z+1/3,+1

loop_
_atom_site_label
_atom_site_type_symbol
_atom_site_fract_x
_atom_site_fract_y
_atom_site_fract_z
Mg1 Mg 0.00000 0.00000 0.3587(2)
Mn1 Mn 0.00000 0.00000 0.1604(3)
O1 O 0.3482(4) 0.0378(3) 0.08834(9)

loop_
_atom_site_moment.label
_atom_site_moment.crystalaxis_x
_atom_site_moment.crystalaxis_y
_atom_site_moment.crystalaxis_z
_atom_site_moment.symmform
Mn1 0.00000 0.00000 2.53(2) 0,0,mz

