#\#CIF_2.0
# Created by the Bilbao Crystallographic Server
# http://www.cryst.ehu.es
# Date: 11/19/2017 17:20:35

data_5yOhtAoR
_audit_creation_date            2017-11-19
_audit_creation_method          "Bilbao Crystallographic Server"


_citation_journal_abbrev        "Physica B"
_citation_journal_volume        215
_citation_page_first            7
_citation_page_last             21
_citation_article_id            ?
_citation_year                  1995
_citation_DOI                   10.1016/0921-4526(95)00021-Z

loop_
_citation_author_name
"G. Lander"
"P. Burlet"




_atomic_positions_source_database_code_ICSD  .
_atomic_positions_source_other               .

_transition_temperature  213
_experiment_temperature  ?

loop_
_irrep_id
_irrep_dimension
_irrep_small_dimension
_irrep_direction_type
_irrep_action
_irrep_modes_number
_irrep_presence
mX3+ 3 1 special-2 primary 1 .

_exptl_crystal_magnetic_properties_details
;
Taken from a review article
moment modulus: 2.85
Similar 3k structures reported for NpBi (see #3.7), NpSb, NpAs
;

_active_magnetic_irreps_details
;
3k magnetic structure
k-maximal symmetry (2 possible cubic maximal symmetries)
;

_parent_space_group.name_H-M_alt  'F  m  -3  m'
_parent_space_group.IT_number                       225
_parent_space_group.transform_Pp_abc  'a,b,c;0,0,0'

loop_
_parent_propagation_vector.id
_parent_propagation_vector.kxkykz
k1 [1 0 0]
k2 [0 1 0]
k3 [0 0 1]

_parent_space_group.child_transform_Pp_abc  'a,b,c;0,0,0'
_space_group_magn.transform_BNS_Pp_abc  'a,b,c;0,0,0'


_space_group_magn.number_BNS  224.113
_space_group_magn.name_BNS  "Pn-3m'"
_cell_length_a                 6.191
_cell_length_b                 6.191
_cell_length_c                 6.191
_cell_angle_alpha              90.00
_cell_angle_beta               90.00
_cell_angle_gamma              90.00

loop_
_space_group_symop_magn_operation.id
_space_group_symop_magn_operation.xyz
1 x,y,z,+1
2 x,-y+1/2,-z+1/2,+1
3 -x+1/2,y,-z+1/2,+1
4 -x+1/2,-y+1/2,z,+1
5 z,x,y,+1
6 y,z,x,+1
7 -y+1/2,z,-x+1/2,+1
8 -z+1/2,-x+1/2,y,+1
9 -y+1/2,-z+1/2,x,+1
10 z,-x+1/2,-y+1/2,+1
11 y,-z+1/2,-x+1/2,+1
12 -z+1/2,x,-y+1/2,+1
13 -x,-y,-z,+1
14 -x,y+1/2,z+1/2,+1
15 x+1/2,-y,z+1/2,+1
16 x+1/2,y+1/2,-z,+1
17 -z,-x,-y,+1
18 -y,-z,-x,+1
19 y+1/2,-z,x+1/2,+1
20 z+1/2,x+1/2,-y,+1
21 y+1/2,z+1/2,-x,+1
22 -z,x+1/2,y+1/2,+1
23 -y,z+1/2,x+1/2,+1
24 z+1/2,-x,y+1/2,+1
25 x+1/2,-z,y+1/2,-1
26 x+1/2,z+1/2,-y,-1
27 z+1/2,y+1/2,-x,-1
28 -z,y+1/2,x+1/2,-1
29 -y,x+1/2,z+1/2,-1
30 y+1/2,-x,z+1/2,-1
31 y+1/2,x+1/2,-z,-1
32 -y,-x,-z,-1
33 -x,z+1/2,y+1/2,-1
34 -x,-z,-y,-1
35 z+1/2,-y,x+1/2,-1
36 -z,-y,-x,-1
37 -x+1/2,z,-y+1/2,-1
38 -x+1/2,-z+1/2,y,-1
39 -z+1/2,-y+1/2,x,-1
40 z,-y+1/2,-x+1/2,-1
41 y,-x+1/2,-z+1/2,-1
42 -y+1/2,x,-z+1/2,-1
43 -y+1/2,-x+1/2,z,-1
44 y,x,z,-1
45 x,-z+1/2,-y+1/2,-1
46 x,z,y,-1
47 -z+1/2,y,-x+1/2,-1
48 z,y,x,-1

loop_
_space_group_symop_magn_centering.id
_space_group_symop_magn_centering.xyz
1 x,y,z,+1

loop_
_atom_site_label
_atom_site_type_symbol
_atom_site_fract_x
_atom_site_fract_y
_atom_site_fract_z
_atom_site_occupancy
Np1 Np 0.00000 0.00000 0.00000 1
Sb1 Sb 0.50000 0.50000 0.50000 1

loop_
_atom_site_moment.label
_atom_site_moment.crystalaxis_x
_atom_site_moment.crystalaxis_y
_atom_site_moment.crystalaxis_z
_atom_site_moment.symmform
Np1 1.65 1.65 1.65 mx,mx,mx


