#\#CIF_2.0
# Created by the Bilbao Crystallographic Server
# http://www.cryst.ehu.es
# Date: 11/19/2017 17:19:52
# Database entry: 2.7 Sm2CuO4
# Cif-like file for the case 2.7


data_5yOhtAoR
_audit_creation_date            2017-11-19
_audit_creation_method          "Bilbao Crystallographic Server"

_chemical_name_systematic
;
;
_chemical_name_common                    ?
_chemical_formula_moiety                 ?
_chemical_formula_structural             ?
_chemical_formula_analytical             ?
_chemical_formula_iupac                  ?
_chemical_formula_sum                    'Sm2 Cu O4'
_chemical_formula_weight                 ?
_chemical_melting_point                  ?
_chemical_compound_source                ?
_chemical_absolute_configuration         .


_citation_journal_abbrev        "J. Appl. Phys."
_citation_journal_volume        69
_citation_page_first            4866
_citation_page_last             4868
_citation_article_id            .
_citation_year                  1991
_citation_DOI                   10.1063/1.348206

loop_
_citation_author_name
"S. Skanthakumar"
"J.W. Lynn"
"J.L. Peng"
"Z.Y. Li"




_atomic_positions_source_database_code_ICSD   71182
_atomic_positions_source_other               .

_transition_temperature     280
_experiment_temperature     ?

loop_
_irrep_id
_irrep_dimension
_irrep_small_dimension
_irrep_direction_type
_irrep_action
_irrep_modes_number
_irrep_presence
mX3+ 2 1 special-2 primary 1 .

_exptl_crystal_magnetic_properties_details
;
NSD
magnitude Cu spin 0.38(4)
;

_active_magnetic_irreps_details
;
2k magnetic structure
k-maximal magnetic symmetry (3 possible).
An alternative 1k model with only one of the two k-vectors of the irrep star is undistinguishable from this 2k model (see entry 1.107).
The active irrep is different from the one in other similar systems as Nd2CuO4 or Pr2CuO4.
The difference with the 2k model in Nd2CuO4 (see entry 2.6) is the opposite sign of the Cu spin at the body centered position. This changes the MSG (and the active irrep).
;

_parent_space_group.name_H-M_alt  'I  4/m  m  m'
_parent_space_group.IT_number                       139
_parent_space_group.transform_Pp_abc  'a,b,c;0,0,0'

loop_
_parent_propagation_vector.id
_parent_propagation_vector.kxkykz
k1 [1/2 1/2 0]
k2 [-1/2 1/2 0]

_parent_space_group.child_transform_Pp_abc  '2a,2b,c;0,0,0'
_space_group_magn.transform_BNS_Pp_abc  '1/2a+1/2b,-1/2a+1/2b,c;0,0,0'


_space_group_magn.number_BNS  138.529
_space_group_magn.name_BNS  "P_C  4_2/n  c  m"
_space_group_magn.point_group_name  "4/mmm1'"
_space_group_magn.point_group_number  "15.2.54"
_cell_length_a                 7.82920
_cell_length_b                 7.82920
_cell_length_c                 11.9720
_cell_angle_alpha              90.00000
_cell_angle_beta               90.00000
_cell_angle_gamma              90.00000

loop_
_space_group_symop_magn_operation.id
_space_group_symop_magn_operation.xyz
1 x,y,z,+1
2 -y+3/4,-x+1/4,-z+1/2,+1
3 y+1/4,x+1/4,-z+1/2,+1
4 -x,-y+1/2,z,+1
5 -x+1/2,y,-z,+1
6 -y+3/4,x+3/4,z+1/2,+1
7 y+1/4,-x+3/4,z+1/2,+1
8 x+1/2,-y+1/2,-z,+1
9 -x+1/2,-y+1/2,-z,+1
10 y+1/4,x+3/4,z+1/2,+1
11 -y+3/4,-x+3/4,z+1/2,+1
12 x+1/2,y,-z,+1
13 x,-y+1/2,z,+1
14 y+1/4,-x+1/4,-z+1/2,+1
15 -y+3/4,x+1/4,-z+1/2,+1
16 -x,y,z,+1

loop_
_space_group_symop_magn_centering.id
_space_group_symop_magn_centering.xyz
1 x,y,z,+1
2 x+1/2,y+1/2,z,+1
3 x+1/2,y,z,-1
4 x,y+1/2,z,-1

loop_
_atom_site_label
_atom_site_type_symbol
_atom_site_fract_x
_atom_site_fract_y
_atom_site_fract_z
_atom_site_occupancy
Sm1 Sm 0.00000 0.00000 0.35100 1
Cu1 Cu 0.00000 0.00000 0.00000 1
O1_1 O 0.50000 0.75000 0.00000 1
O1_2 O 0.75000 0.00000 0.00000 1
O2_1 O 0.50000 0.75000 0.25000 1
O2_2 O 0.75000 0.00000 0.25000 1

loop_
_atom_site_moment.label
_atom_site_moment.crystalaxis_x
_atom_site_moment.crystalaxis_y
_atom_site_moment.crystalaxis_z
_atom_site_moment.symmform
Cu1 0.38(4) 0.0 0.0 mx,0,0

