#\#CIF_2.0
# Created by the Bilbao Crystallographic Server
# http://www.cryst.ehu.es
# Date: 14/11/2020

data_5yOhtAoR
_audit_creation_date            2020-11-14
_audit_creation_method          "Bilbao Crystallographic Server"

_citation_journal_abbrev        "Eur. Phys. J. B"
_citation_journal_volume        36
_citation_page_first            511
_citation_page_last             518
_citation_article_id            .
_citation_year                  2003
_citation_DOI                   10.1140/epjb/e2004-00006-4

loop_
_citation_author_name
"O. Moze"
"M. Hofmann"
"J.M. Cadogan"
"K.H.J. Buschow"
"D.H. Ryan"



_atomic_positions_source_database_code_ICSD  .
_atomic_positions_source_other               .

_transition_temperature  2.4
_experiment_temperature  2

loop_
_irrep_id
_irrep_dimension
_irrep_small_dimension
_irrep_direction_type
_irrep_action
_irrep_modes_number
_irrep_presence
mGM2-  1  1  .  primary  1  .
mGM5+  2  2 special primary 2 .

_exptl_crystal_magnetic_properties_details
;
NPD
Above 2.4K and up to 692K only Cr moments are ordered
Direction of the Er on the basal plane undetermined. A direction of maximal symmetry is assumed.
;

_active_magnetic_irreps_details
;
1k magnetic structure
Two irreps active as primary: two order parameters with different symmetry, one for the Cr moments and the other for the Er ordering.
;

_parent_space_group.name_H-M_alt  'I 4/m m m'
_parent_space_group.IT_number                       139
_parent_space_group.transform_Pp_abc  'a,b,c;0,0,0'

loop_
_parent_propagation_vector.id
_parent_propagation_vector.kxkykz
k1 [0 0 0]

_parent_space_group.child_transform_Pp_abc  'a,b,c;0,0,0'
_space_group_magn.transform_BNS_Pp_abc  'c,b,-a;0,0,0'



_space_group_magn.number_BNS  44.232
_space_group_magn.name_BNS  "I m' m' 2"
_cell_length_a             3.8950(2)
_cell_length_b             3.8950
_cell_length_c             10.632(1)
_cell_angle_alpha          90.00
_cell_angle_beta           90.00
_cell_angle_gamma          90.00

loop_
_space_group_symop_magn_operation.id
_space_group_symop_magn_operation.xyz
1 x,y,z,+1
2 x,-y,-z,+1
3 x,y,-z,-1
4 x,-y,z,-1

loop_
_space_group_symop_magn_centering.id
_space_group_symop_magn_centering.xyz
1 x,y,z,+1
2 x+1/2,y+1/2,z+1/2,+1

loop_
_atom_site_label
_atom_site_type_symbol
_atom_site_fract_x
_atom_site_fract_y
_atom_site_fract_z
Er1 Er 0.00000 0.00000 0.00000
Cr1 Cr 0.00000 0.50000 0.25000
Si1 Si 0.00000 0.00000 0.3888(4)

loop_
_atom_site_moment.label
_atom_site_moment.crystalaxis_x
_atom_site_moment.crystalaxis_y
_atom_site_moment.crystalaxis_z
_atom_site_moment.symmform
_atom_site_moment.magnitude
Er1 5.24(5) 0.00000 0.00000 mx,0,0    5.24(5)
Cr1 0.00000 0.00000 -1.35(7) mx,0,mz  1.35(7)

