#\#CIF_2.0
# Created by the Bilbao Crystallographic Server
# http://www.cryst.ehu.es
# Date: 11/19/2017 17:01:47
# Database entry: 0.146 EuZrO3
# Cif-like file for the case 0.146


data_5yOhtAoR
_audit_creation_date            2017-11-19
_audit_creation_method          "Bilbao Crystallographic Server"

_chemical_name_systematic
;
;
_chemical_name_common                    ?
_chemical_formula_moiety                 ?
_chemical_formula_structural             ?
_chemical_formula_analytical             ?
_chemical_formula_iupac                  ?
_chemical_formula_sum                    'Eu Zr O3'
_chemical_formula_weight                 ?
_chemical_melting_point                  ?
_chemical_compound_source                ?
_chemical_absolute_configuration         .


_citation_journal_abbrev        "J. Phys.: Condens. Matter"
_citation_journal_volume        26
_citation_page_first            ?
_citation_page_last             ?
_citation_article_id            095401
_citation_year                  2014
_citation_DOI                   10.1088/0953-8984/26/9/095401

loop_
_citation_author_name
"M. Avdeev"
"B.J. Kennedy"
"T. Kolodiazhnyi"






_atomic_positions_source_database_code_ICSD  .
_atomic_positions_source_other               .

_transition_temperature     4.1
_experiment_temperature     1.4

loop_
_irrep_id
_irrep_dimension
_irrep_small_dimension
_irrep_direction_type
_irrep_action
_irrep_modes_number
_irrep_presence
? ? ? ? ? ? ?

_exptl_crystal_magnetic_properties_details
;
NPD
;

_active_magnetic_irreps_details
;
1k magnetic structure
k-maximal magnetic symmetry
1-dim irrep active: constraints equivalent to the MSG assignment
linear magnetoelectric effect is symmetry allowed (non-zero coefficients alpha_13 and alpha_31)
;

_parent_space_group.name_H-M_alt  'P  n  m  a'
_parent_space_group.IT_number                       62
_parent_space_group.transform_Pp_abc  'a,b,c;0,0,0'

loop_
_parent_propagation_vector.id
_parent_propagation_vector.kxkykz
k1 [0 0 0]

_parent_space_group.child_transform_Pp_abc  'a,b,c;0,0,0'
_space_group_magn.transform_BNS_Pp_abc  'a,b,c;0,0,0'


_space_group_magn.number_BNS  62.444
_space_group_magn.name_BNS  "P  n  m'  a"
_space_group_magn.point_group_name  "m'mm"
_space_group_magn.point_group_number  "8.3.26"
_cell_length_a                 5.8163(5)
_cell_length_b                 8.1854(6)
_cell_length_c                 5.7816(5)
_cell_angle_alpha              90.00
_cell_angle_beta               90.00
_cell_angle_gamma              90.00

loop_
_space_group_symop_magn_operation.id
_space_group_symop_magn_operation.xyz
1 x,y,z,+1
2 -x,y+1/2,-z,+1
3 -x+1/2,y+1/2,z+1/2,+1
4 x+1/2,y,-z+1/2,+1
5 x+1/2,-y+1/2,-z+1/2,-1
6 -x+1/2,-y,z+1/2,-1
7 -x,-y,-z,-1
8 x,-y+1/2,z,-1

loop_
_space_group_symop_magn_centering.id
_space_group_symop_magn_centering.xyz
1 x,y,z,+1

loop_
_atom_site_label
_atom_site_type_symbol
_atom_site_fract_x
_atom_site_fract_y
_atom_site_fract_z
_atom_site_occupancy
Eu1 Eu 0.0283(12) 0.25000 0.499(4) 1
Zr1 Zr 0.00000 0.00000 0.00000 1
O1 O 0.485(2) 0.25000 0.578(2) 1
O2 O 0.2908(14) 0.0330(10) 0.2147(15) 1

loop_
_atom_site_moment.label
_atom_site_moment.crystalaxis_x
_atom_site_moment.crystalaxis_y
_atom_site_moment.crystalaxis_z
_atom_site_moment.symmform
Eu1 7.3(1) 0.0 0.0 mx,0,mz

