#\#CIF_2.0
# Created by the Bilbao Crystallographic Server
# http://www.cryst.ehu.es
# Date: 11/19/2017 17:08:00
# Database entry: 1.45 NdNiO3
# Cif-like file for the case 1.45


data_5yOhtAoR
_audit_creation_date            2017-11-19
_audit_creation_method          "Bilbao Crystallographic Server"

_chemical_name_systematic
;
;
_chemical_name_common                    ?
_chemical_formula_moiety                 ?
_chemical_formula_structural             ?
_chemical_formula_analytical             ?
_chemical_formula_iupac                  ?
_chemical_formula_sum                    'Nd Ni O3'
_chemical_formula_weight                 ?
_chemical_melting_point                  ?
_chemical_compound_source                ?
_chemical_absolute_configuration         .


_citation_journal_abbrev        "PHYSICAL REVIEW B"
_citation_journal_volume        50
_citation_page_first            978
_citation_page_last             992
_citation_article_id            .
_citation_year                  1994
_citation_DOI                   10.1103/physrevb.50.978

loop_
_citation_author_name
"J.L. Garcia-Munoz"
"J. Rodriguez-Carvajal"
"P. Lacorre"





_atomic_positions_source_database_code_ICSD   67722
_atomic_positions_source_other               .

_transition_temperature     200
_experiment_temperature     50

loop_
_irrep_id
_irrep_dimension
_irrep_small_dimension
_irrep_direction_type
_irrep_action
_irrep_modes_number
_irrep_presence
mT1 2 2 special primary . .

_exptl_crystal_magnetic_properties_details
;
NPD
parent setting non-standard Pbnm.
icsd structure at 1.5K
insulator phase. Posible ferrolectricity (polarization along b in present Pbnm setting). Possible multiferroic.
;

_active_magnetic_irreps_details
;
1k magnetic structure
irrep label for Pnma standard setting (k=(0 1/2 1/2))
k-maximal magnetic symmetry (4 possible - 2 polar)
;

_parent_space_group.name_H-M_alt  'P  b  n  m'
_parent_space_group.IT_number                       62
_parent_space_group.transform_Pp_abc  'b,c,a;0,0,0'

loop_
_parent_propagation_vector.id
_parent_propagation_vector.kxkykz
k1 [1/2 0 1/2]

_parent_space_group.child_transform_Pp_abc  '2a,b,2c;0,0,0'
_space_group_magn.transform_BNS_Pp_abc  '-c,a,-b;5/8,0,7/8'


_space_group_magn.number_BNS  36.178
_space_group_magn.name_BNS  "C_a  m  c  2_1"
_space_group_magn.point_group_name  "mm21'"
_space_group_magn.point_group_number  "7.2.21"
_cell_length_a                 10.7648
_cell_length_b                 5.3861
_cell_length_c                 15.2132
_cell_angle_alpha              90.0000
_cell_angle_beta               90.0000
_cell_angle_gamma              90.0000

loop_
_space_group_symop_magn_operation.id
_space_group_symop_magn_operation.xyz
1 x,y,z,+1
2 -x+1/4,y+1/2,-z+3/4,+1
3 x,y,-z+3/4,+1
4 -x+1/4,y+1/2,z,+1

loop_
_space_group_symop_magn_centering.id
_space_group_symop_magn_centering.xyz
1 x,y,z,+1
2 x+1/2,y,z+1/2,+1
3 x,y,z+1/2,-1
4 x+1/2,y,z,-1

loop_
_atom_site_label
_atom_site_type_symbol
_atom_site_fract_x
_atom_site_fract_y
_atom_site_fract_z
_atom_site_occupancy
Nd1_1 Nd 0.49700 0.03840 0.12500 1
Nd1_2 Nd 0.24700 0.4616 0.37500 1
Ni1 Ni 0.25000 0.00000 0.00000 1
O1_1 O 0.03655 0.4919 0.12500 1
O1_2 O 0.28655 0.00810 0.37500 1
O2_1 O 0.35580 0.2866 0.01935 1
O2_2 O 0.1058 0.2134 0.48065 1

loop_
_atom_site_moment.label
_atom_site_moment.crystalaxis_x
_atom_site_moment.crystalaxis_y
_atom_site_moment.crystalaxis_z
_atom_site_moment.symmform
Nd1_1 0.0 0.0 0.0 mx,my,0
Nd1_2 0.0 0.0 0.0 0,0,mz
Ni1 0.94(4) 0.0 0.0 mx,my,mz

