#\#CIF_2.0
# Created by the Bilbao Crystallographic Server
# http://www.cryst.ehu.es
# Date: 20/11/2020

data_5yOhtAoR
_audit_creation_date            2020-11-20
_audit_creation_method          "Bilbao Crystallographic Server"

_citation_journal_abbrev        "Materials Science Forum"
_citation_journal_volume        228-231
_citation_page_first            587
_citation_page_last             594
_citation_article_id            .
_citation_year                  1996
_citation_DOI                   10.4028/www.scientific.net/MSF.228-231.587

loop_
_citation_author_name
"M. Hofmann"
"S. Campbell"
"X.L. Zhao"
"Y. Nakayama"
"R. Cywinski"



_atomic_positions_source_database_code_ICSD  82939
_atomic_positions_source_other               .

_transition_temperature  310
_experiment_temperature  10

loop_
_irrep_id
_irrep_dimension
_irrep_small_dimension
_irrep_direction_type
_irrep_action
_irrep_modes_number
_irrep_presence
mGM3+  1  1  .  primary  2  .
mGM5-  2  2  special primary 1 .

_exptl_crystal_magnetic_properties_details
;
NPD
The relative sign of the mx and mz components of the symmetry independent Mn moment can be chosen arbitrarily, as the two possibilities correspond to two equivalent domain-related spin arrangements.
;

_active_magnetic_irreps_details
;
1k magnetic structure
Two irreps involved as primary: two order parameters present in the sense of Landau theory
FM along c
Above 310K an AFM phase with a single irrep being involved.
;

_parent_space_group.name_H-M_alt  'I 4/m m m'
_parent_space_group.IT_number                       139
_parent_space_group.transform_Pp_abc  'a,b,c;0,0,0'

loop_
_parent_propagation_vector.id
_parent_propagation_vector.kxkykz
k1 [0 0 0]

_parent_space_group.child_transform_Pp_abc  'a,b,c;0,0,0'
_space_group_magn.transform_BNS_Pp_abc  'b,c,a;0,0,0'



_space_group_magn.number_BNS  44.231
_space_group_magn.name_BNS  "I m' m 2'"
_cell_length_a             4.09850
_cell_length_b             4.09850
_cell_length_c             10.56330
_cell_angle_alpha          90.00
_cell_angle_beta           90.00
_cell_angle_gamma          90.00

loop_
_space_group_symop_magn_operation.id
_space_group_symop_magn_operation.xyz
1 x,y,z,+1
2 x,y,-z,+1
3 x,-y,-z,-1
4 x,-y,z,-1

loop_
_space_group_symop_magn_centering.id
_space_group_symop_magn_centering.xyz
1 x,y,z,+1
2 x+1/2,y+1/2,z+1/2,+1

loop_
_atom_site_label
_atom_site_type_symbol
_atom_site_fract_x
_atom_site_fract_y
_atom_site_fract_z
La1 La 0.00000 0.00000 0.00000
Mn1 Mn 0.00000 0.50000 0.25000
Si1 Si 0.00000 0.00000 0.38010

loop_
_atom_site_moment.label
_atom_site_moment.crystalaxis_x
_atom_site_moment.crystalaxis_y
_atom_site_moment.crystalaxis_z
_atom_site_moment.symmform
_atom_site_moment.magnitude
Mn1 -1.993(7) 0.00000 1.682(10) mx,0,mz 2.608(9)


