#\#CIF_2.0
# Created by the Bilbao Crystallographic Server
# http://www.cryst.ehu.es
# Date: 11/19/2017 17:08:08
# Database entry: 1.47 Sr2FeOsO6
# Cif-like file for the case 1.47


data_5yOhtAoR
_audit_creation_date            2017-11-19
_audit_creation_method          "Bilbao Crystallographic Server"

_chemical_name_systematic
;
;
_chemical_name_common                    ?
_chemical_formula_moiety                 ?
_chemical_formula_structural             ?
_chemical_formula_analytical             ?
_chemical_formula_iupac                  ?
_chemical_formula_sum                    'Sr2 Fe Os O6'
_chemical_formula_weight                 ?
_chemical_melting_point                  ?
_chemical_compound_source                ?
_chemical_absolute_configuration         .


_citation_journal_abbrev        "Phys. Rev. Lett."
_citation_journal_volume        111
_citation_page_first            ?
_citation_page_last             ?
_citation_article_id            167205
_citation_year                  2013
_citation_DOI                   10.1103/physrevlett.111.167205

loop_
_citation_author_name
"A.K. Paul"
"M. Reehuis"
"V. Ksenofontov"
"B. Yan"
"A. Hoser"
"D.M. Tobbens"
"P.M. Abdala"
"P. Adler"
"M. Jansen"
"C. Felser"





_atomic_positions_source_database_code_ICSD  .
_atomic_positions_source_other               "Inorg. Chem. 2013, 52, 6713-6719"

_transition_temperature     140
_experiment_temperature     75

loop_
_irrep_id
_irrep_dimension
_irrep_small_dimension
_irrep_direction_type
_irrep_action
_irrep_modes_number
_irrep_presence
mM1+ 1 1 . primary . .

_exptl_crystal_magnetic_properties_details
;
NPD
positional structure at 78K
AF1 phase
reported k-vector (1, 0, 0) is equivalent to (1,1,1) (point M)
;

_active_magnetic_irreps_details
;
1k magnetic structure
k-maximal magnetic symmetry (2 possible)
;

_parent_space_group.name_H-M_alt  'I  4/m'
_parent_space_group.IT_number                       87
_parent_space_group.transform_Pp_abc  'a,b,c;0,0,0'

loop_
_parent_propagation_vector.id
_parent_propagation_vector.kxkykz
k1 [1 1 1]

_parent_space_group.child_transform_Pp_abc  'a,b,c;0,0,0'
_space_group_magn.transform_BNS_Pp_abc  'a,b,c;0,0,0'


_space_group_magn.number_BNS  83.50
_space_group_magn.name_BNS  "P_I  4/m"
_space_group_magn.point_group_name  "4/m1'"
_space_group_magn.point_group_number  "11.2.36"
_cell_length_a                 5.51740
_cell_length_b                 5.51740
_cell_length_c                 7.93890
_cell_angle_alpha              90.00
_cell_angle_beta               90.00
_cell_angle_gamma              90.00

loop_
_space_group_symop_magn_operation.id
_space_group_symop_magn_operation.xyz
1 x,y,z,+1
2 -y,x,z,+1
3 y,-x,z,+1
4 -x,-y,z,+1
5 -x,-y,-z,+1
6 y,-x,-z,+1
7 -y,x,-z,+1
8 x,y,-z,+1

loop_
_space_group_symop_magn_centering.id
_space_group_symop_magn_centering.xyz
1 x,y,z,+1
2 x+1/2,y+1/2,z+1/2,-1

loop_
_atom_site_label
_atom_site_type_symbol
_atom_site_fract_x
_atom_site_fract_y
_atom_site_fract_z
_atom_site_occupancy
Sr1 Sr 0.00000 0.50000 0.25000 1
Fe1 Fe 0.00000 0.00000 0.00000 1
Os1 Os 0.00000 0.00000 0.50000 1
O1 O 0.00000 0.00000 0.2487(8) 1
O2 O 0.2815(11) 0.2205(10) 0.00000 1

loop_
_atom_site_moment.label
_atom_site_moment.crystalaxis_x
_atom_site_moment.crystalaxis_y
_atom_site_moment.crystalaxis_z
_atom_site_moment.symmform
Fe1 0.0 0.0 1.83(7) 0,0,mz
Os1 0.0 0.0 0.48(9) 0,0,mz

