#\#CIF_2.0
# Created by the Bilbao Crystallographic Server
# http://www.cryst.ehu.es
# Date: 28/10/2020

data_5yOhtAoR
_audit_creation_date            2020-10-28
_audit_creation_method          "Bilbao Crystallographic Server"

_citation_journal_abbrev        "J. Phys.: Condens. Matter"
_citation_journal_volume        26
_citation_page_first            ?
_citation_page_last             ?
_citation_article_id            366001
_citation_year                  2014
_citation_DOI                   10.1088/0953-8984/26/36/366001

loop_
_citation_author_name
"C. Ritter"
"S.K. Dhar"
"R. Kulkarni"
"A. Provino"
"D. Paudyal"
"P. Manfrinetti"
"K.A. Gschneidner"



_atomic_positions_source_database_code_ICSD  427128
_atomic_positions_source_other               .

_transition_temperature  16
_experiment_temperature  2

loop_
_irrep_id
_irrep_dimension
_irrep_small_dimension
_irrep_direction_type
_irrep_action
_irrep_modes_number
_irrep_presence
mM3+  1  1  .  primary  1  .

_exptl_crystal_magnetic_properties_details
;
NPD
Position structure at room temperature from another study retrieved from ICSD
;

_active_magnetic_irreps_details
;
1k magnetic structure
k-maximal magnetic symmetry (6 possible)
1-dim irrep as primary
;

_parent_space_group.name_H-M_alt  'I 4/m m m'
_parent_space_group.IT_number                       139
_parent_space_group.transform_Pp_abc  'a,b,c;0,0,0'

loop_
_parent_propagation_vector.id
_parent_propagation_vector.kxkykz
k1 [1 1 1]

_parent_space_group.child_transform_Pp_abc  'a,b,c;0,0,0'
_space_group_magn.transform_BNS_Pp_abc  'a,b,c;0,0,0'



_space_group_magn.number_BNS  128.410
_space_group_magn.name_BNS  "P_I 4/m n c"
_cell_length_a             4.40760
_cell_length_b             4.40760
_cell_length_c             16.41500
_cell_angle_alpha          90.00
_cell_angle_beta           90.00
_cell_angle_gamma          90.00

loop_
_space_group_symop_magn_operation.id
_space_group_symop_magn_operation.xyz
1 x,y,z,+1
2 -y,x,z,+1
3 y,-x,z,+1
4 x+1/2,-y+1/2,-z+1/2,+1
5 -x+1/2,y+1/2,-z+1/2,+1
6 -x,-y,z,+1
7 y+1/2,x+1/2,-z+1/2,+1
8 -y+1/2,-x+1/2,-z+1/2,+1
9 -x,-y,-z,+1
10 y,-x,-z,+1
11 -y,x,-z,+1
12 -x+1/2,y+1/2,z+1/2,+1
13 x+1/2,-y+1/2,z+1/2,+1
14 x,y,-z,+1
15 -y+1/2,-x+1/2,z+1/2,+1
16 y+1/2,x+1/2,z+1/2,+1

loop_
_space_group_symop_magn_centering.id
_space_group_symop_magn_centering.xyz
1 x,y,z,+1
2 x+1/2,y+1/2,z+1/2,-1

loop_
_atom_site_label
_atom_site_type_symbol
_atom_site_fract_x
_atom_site_fract_y
_atom_site_fract_z
Pr1 Pr 0.00000 0.00000 0.67508
Sb1 Sb 0.00000 0.00000 0.87275
Sc1 Sc 0.00000 0.50000 0.00000

loop_
_atom_site_moment.label
_atom_site_moment.crystalaxis_x
_atom_site_moment.crystalaxis_y
_atom_site_moment.crystalaxis_z
_atom_site_moment.symmform
_atom_site_moment.magnitude
Pr1 0.00000 0.00000 2.54 0,0,mz  2.54

