#\#CIF_2.0
# Created by the Bilbao Crystallographic Server
# http://www.cryst.ehu.es
# Date: 24/01/2021

data_5yOhtAoR
_audit_creation_date            2021-01-24
_audit_creation_method          "Bilbao Crystallographic Server"

_citation_journal_abbrev        "Solid State Sciences"
_citation_journal_volume        28
_citation_page_first            26
_citation_page_last             30
_citation_article_id            .
_citation_year                  2014
_citation_DOI                   10.1016/j.solidstatesciences.2013.12.001

loop_
_citation_author_name
"K. Knizek"
"Z. Jirak"
"P. Novak"
"C. de la Cruz"



_atomic_positions_source_database_code_ICSD  190946
_atomic_positions_source_other               .

_transition_temperature  3.3
_experiment_temperature  0.25

loop_
_irrep_id
_irrep_dimension
_irrep_small_dimension
_irrep_direction_type
_irrep_action
_irrep_modes_number
_irrep_presence
mGM4-  1  1  .  primary  2  .

_exptl_crystal_magnetic_properties_details
;
NPD
Non-standard parent setting Pbnm
;

_active_magnetic_irreps_details
;
1k magnetic structure
k-maximal magnetic symmetry
1-dim irrep as primary
Irrep label used here is for the standard setting Pnma of the parent space group
;

_parent_space_group.name_H-M_alt  'P b n m'
_parent_space_group.IT_number                       62
_parent_space_group.transform_Pp_abc  'b,c,a;0,0,0'

loop_
_parent_propagation_vector.id
_parent_propagation_vector.kxkykz
k1 [0 0 0]

_parent_space_group.child_transform_Pp_abc  'a,b,c;0,0,0'
_space_group_magn.transform_BNS_Pp_abc  'b,c,a;0,0,0'



_space_group_magn.number_BNS  62.444
_space_group_magn.name_BNS  "P n m' a"
_cell_length_a             5.2034(3)
_cell_length_b             5.3890(3)
_cell_length_c             7.4050(4)
_cell_angle_alpha          90.00
_cell_angle_beta           90.00
_cell_angle_gamma          90.00

loop_
_space_group_symop_magn_operation.id
_space_group_symop_magn_operation.xyz
1 x,y,z,+1
2 -x,-y,z+1/2,+1
3 x+1/2,-y+1/2,z+1/2,+1
4 -x+1/2,y+1/2,z,+1
5 -x+1/2,y+1/2,-z+1/2,-1
6 x+1/2,-y+1/2,-z,-1
7 -x,-y,-z,-1
8 x,y,-z+1/2,-1

loop_
_space_group_symop_magn_centering.id
_space_group_symop_magn_centering.xyz
1 x,y,z,+1

loop_
_atom_site_label
_atom_site_type_symbol
_atom_site_fract_x
_atom_site_fract_y
_atom_site_fract_z
Tb1 Tb -0.0124(7) 0.0633(4) 0.2500
Co1 Co 0.50000 0.00000 0.00000
O1 O 0.0924(9) 0.4779(8) 0.25000
O2 O 0.6992(6) 0.2970(6) 0.0446(4)

loop_
_atom_site_moment.label
_atom_site_moment.crystalaxis_x
_atom_site_moment.crystalaxis_y
_atom_site_moment.crystalaxis_z
_atom_site_moment.symmform
_atom_site_moment.magnitude
Tb1 -6.5 5.1 0.00000 mx,my,0  8.3

