#\#CIF_2.0
# Created by the Bilbao Crystallographic Server
# http://www.cryst.ehu.es
# Date: 11/19/2017 17:17:44
# Database entry: 1.160 UP
# Cif-like file for the case 1.160


data_5yOhtAoR
_audit_creation_date            2017-11-19
_audit_creation_method          "Bilbao Crystallographic Server"

_chemical_name_systematic
;
;
_chemical_name_common                    ?
_chemical_formula_moiety                 ?
_chemical_formula_structural             ?
_chemical_formula_analytical             ?
_chemical_formula_iupac                  ?
_chemical_formula_sum                    'U P'
_chemical_formula_weight                 ?
_chemical_melting_point                  ?
_chemical_compound_source                ?
_chemical_absolute_configuration         .


_citation_journal_abbrev        "Solid State Comm."
_citation_journal_volume        55
_citation_page_first            12
_citation_page_last             1057
_citation_article_id            1061
_citation_year                  1985
_citation_DOI                   10.1016/0038-1098(85)90132-2

loop_
_citation_author_name
"P. Burlet"
"S. Quezel"
"J. Rossat-Mignod"
"R. Horyn"




_atomic_positions_source_database_code_ICSD   648255
_atomic_positions_source_other               .

_transition_temperature     122
_experiment_temperature     ?

loop_
_irrep_id
_irrep_dimension
_irrep_small_dimension
_irrep_direction_type
_irrep_action
_irrep_modes_number
_irrep_presence
mX3+ 3 1 . primary 1 .

_exptl_crystal_magnetic_properties_details
;
NSD
U-magnetic moment 1.70(5)
under 22.5K a 2k magnetic structure is reported (entry #2.13)
;

_active_magnetic_irreps_details
;
1k magnetic structure
1k-maximal magnetic symmetry (3 possible)
;

_parent_space_group.name_H-M_alt  'F  m  -3m'
_parent_space_group.IT_number                       225
_parent_space_group.transform_Pp_abc  'a,b,c;0,0,0'

loop_
_parent_propagation_vector.id
_parent_propagation_vector.kxkykz
k1 [0 0 1]

_parent_space_group.child_transform_Pp_abc  'a,b,c;0,0,0'
_space_group_magn.transform_BNS_Pp_abc  '1/2a-1/2b,1/2a+1/2b,c;0,0,0'


_space_group_magn.number_BNS  128.410
_space_group_magn.name_BNS  "P_I  4/m  n  c"
_space_group_magn.point_group_name  "4/mmm1'"
_space_group_magn.point_group_number  "15.2.54"
_cell_length_a                 5.58900
_cell_length_b                 5.58900
_cell_length_c                 5.58900
_cell_angle_alpha              90.00
_cell_angle_beta               90.00
_cell_angle_gamma              90.00

loop_
_space_group_symop_magn_operation.id
_space_group_symop_magn_operation.xyz
1 x,y,z,+1
2 -y,x,z,+1
3 y,-x,z,+1
4 -y+1/2,-x,-z+1/2,+1
5 y+1/2,x,-z+1/2,+1
6 -x,-y,z,+1
7 x+1/2,-y,-z+1/2,+1
8 -x+1/2,y,-z+1/2,+1
9 -x,-y,-z,+1
10 y,-x,-z,+1
11 -y,x,-z,+1
12 y+1/2,x,z+1/2,+1
13 -y+1/2,-x,z+1/2,+1
14 x,y,-z,+1
15 -x+1/2,y,z+1/2,+1
16 x+1/2,-y,z+1/2,+1

loop_
_space_group_symop_magn_centering.id
_space_group_symop_magn_centering.xyz
1 x,y,z,+1
2 x+1/2,y+1/2,z,+1
3 x+1/2,y,z+1/2,-1
4 x,y+1/2,z+1/2,-1

loop_
_atom_site_label
_atom_site_type_symbol
_atom_site_fract_x
_atom_site_fract_y
_atom_site_fract_z
_atom_site_occupancy
P1 P 0.50000 0.50000 0.50000 1
U1 U 0.00000 0.00000 0.00000 1

loop_
_atom_site_moment.label
_atom_site_moment.crystalaxis_x
_atom_site_moment.crystalaxis_y
_atom_site_moment.crystalaxis_z
_atom_site_moment.symmform
U1 0.0 0.0 1.7 0,0,mz

