#\#CIF_2.0
# Created by the Bilbao Crystallographic Server
# http://www.cryst.ehu.es
# Date: 26/03/2020


data_5yOhtAoR
_audit_creation_date            2020-03-26
_audit_creation_method          "Bilbao Crystallographic Server"

_citation_journal_abbrev        "Journal of Magnetism and Magnetic Materials"
_citation_journal_volume        170
_citation_page_first            155
_citation_page_last             167
_citation_article_id            ?
_citation_year                  1997
_citation_DOI                   10.1016/S0304-8853(97)00024-3

loop_
_citation_author_name
"D. Laffargue"
"F. Bouree"
"B. Chevalier"
"T. Roisnel"
"P. Gravereau"
"J. Etourneau"




_atomic_positions_source_database_code_ICSD  .
_atomic_positions_source_other               .

_atomic_positions_source_database_code_ICSD  ?
_atomic_positions_source_other               ?

_transition_temperature  40
_experiment_temperature  1.5

loop_
_irrep_id
_irrep_dimension
_irrep_small_dimension
_irrep_direction_type
_irrep_action
_irrep_modes_number
_irrep_presence
mGM4- 1  1  .  primary  1  .

_exptl_crystal_magnetic_properties_details
;
NPD
see entry 0.81 for another simmilar model of the same structure
U moment components with non-significant digits to yield the reported moment modulus
U magnetic moment modulus: 2.20(5)
;

_active_magnetic_irreps_details
;
1k magnetic structure
k-maximal magnetic symmetry (10 possible)
1-dim irrep
;

_parent_space_group.name_H-M_alt  'P 4/m b m'
_parent_space_group.IT_number                       127
_parent_space_group.transform_Pp_abc  'a,b,c;0,0,0'

loop_
_parent_propagation_vector.id
_parent_propagation_vector.kxkykz
k1 [0 0 0]

_parent_space_group.child_transform_Pp_abc  'a,b,c;0,0,0'
_space_group_magn.transform_BNS_Pp_abc  'a,b,c;0,0,0'



_space_group_magn.number_BNS  127.394
_space_group_magn.name_BNS  "P 4'/m' b m'"
_cell_length_a             7.59200
_cell_length_b             7.59200
_cell_length_c             3.77000
_cell_angle_alpha          90.00
_cell_angle_beta           90.00
_cell_angle_gamma          90.00

loop_
_space_group_symop_magn_operation.id
_space_group_symop_magn_operation.xyz
1 x,y,z,+1
2 -x,-y,z,+1
3 y+1/2,x+1/2,-z,+1
4 -y+1/2,-x+1/2,-z,+1
5 y,-x,-z,+1
6 -y,x,-z,+1
7 -x+1/2,y+1/2,z,+1
8 x+1/2,-y+1/2,z,+1
9 -y,x,z,-1
10 y,-x,z,-1
11 x+1/2,-y+1/2,-z,-1
12 -x+1/2,y+1/2,-z,-1
13 -x,-y,-z,-1
14 x,y,-z,-1
15 -y+1/2,-x+1/2,z,-1
16 y+1/2,x+1/2,z,-1

loop_
_space_group_symop_magn_centering.id
_space_group_symop_magn_centering.xyz
1 x,y,z,+1

loop_
_atom_site_label
_atom_site_type_symbol
_atom_site_fract_x
_atom_site_fract_y
_atom_site_fract_z
U1 U 0.17580 0.67580 0.50000
Sn1 Sn 0.00000 0.00000 0.00000
Pd1 Pd 0.37270 0.87270 0.00000

loop_
_atom_site_moment.label
_atom_site_moment.crystalaxis_x
_atom_site_moment.crystalaxis_y
_atom_site_moment.crystalaxis_z
_atom_site_moment.symmform
U1 1.555 1.555 0.00000 mx,mx,0

