#\#CIF_2.0
# Created by the Bilbao Crystallographic Server
# http://www.cryst.ehu.es
# Date: 06/10/2020


data_5yOhtAoR
_audit_creation_date            2020-10-06
_audit_creation_method          "Bilbao Crystallographic Server"

_citation_journal_abbrev        "PHYSICAL REVIEW B"
_citation_journal_volume        101
_citation_page_first            ?
_citation_page_last             ?
_citation_article_id            174411
_citation_year                  2020
_citation_DOI                   10.1103/PhysRevB.101.174411

loop_
_citation_author_name
"H. Masuda"
"H. Sakai"
"H. Takahashi"
"Y. Yamasaki"
"A. Nakao"
"T. Moyoshi"
"H. Nakao"
"Y. Murakami"
"T. Arima"
"S. Ishiwata"




_atomic_positions_source_database_code_ICSD  193593
_atomic_positions_source_other               .

_transition_temperature  22
_experiment_temperature  2

loop_
_irrep_id
_irrep_dimension
_irrep_small_dimension
_irrep_direction_type
_irrep_action
_irrep_modes_number
_irrep_presence
mGM2-  1  1  .  primary  1  .
mM1-  1  1  .  primary  1  .

_exptl_crystal_magnetic_properties_details
;
NSD
Position structure from a measurement at 173K
Above 22K up to 315K a phase exist with only Mn ordered (see #0.426)
A third structure under magnetic field along z is also reported in the same reference (see #2.51)
Assumed values for the Mn and Eu moment moduli were fixed and not refined.
;

_active_magnetic_irreps_details
;
2k magnetic structure
k-maximal magnetic symmetry
Two irreps active as primary, mGM2- for the Mn ordering and mM1- for the Eu moment arrangement
;

_parent_space_group.name_H-M_alt  'I 4/m m m'
_parent_space_group.IT_number                       139
_parent_space_group.transform_Pp_abc  'a,b,c;0,0,0'

loop_
_parent_propagation_vector.id
_parent_propagation_vector.kxkykz
k1 [0 0 0]
k2 [1 1 1]

_parent_space_group.child_transform_Pp_abc  'a,b,c;0,0,0'
_space_group_magn.transform_BNS_Pp_abc  'a,b,c;0,1/2,0'



_space_group_magn.number_BNS  131.440
_space_group_magn.name_BNS  "P 4_2'/m' m' c"
_cell_length_a             4.5342
_cell_length_b             4.5342
_cell_length_c             22.427
_cell_angle_alpha          90.00
_cell_angle_beta           90.00
_cell_angle_gamma          90.00

loop_
_space_group_symop_magn_operation.id
_space_group_symop_magn_operation.xyz
1 x,y,z,+1
2 x,-y,-z,+1
3 -x,y,-z,+1
4 -x,-y,z,+1
5 y+1/2,-x+1/2,-z+1/2,+1
6 -y+1/2,x+1/2,-z+1/2,+1
7 -y+1/2,-x+1/2,z+1/2,+1
8 y+1/2,x+1/2,z+1/2,+1
9 -y+1/2,x+1/2,z+1/2,-1
10 y+1/2,-x+1/2,z+1/2,-1
11 y+1/2,x+1/2,-z+1/2,-1
12 -y+1/2,-x+1/2,-z+1/2,-1
13 -x,-y,-z,-1
14 -x,y,z,-1
15 x,-y,z,-1
16 x,y,-z,-1

loop_
_space_group_symop_magn_centering.id
_space_group_symop_magn_centering.xyz
1 x,y,z,+1

loop_
_atom_site_label
_atom_site_type_symbol
_atom_site_fract_x
_atom_site_fract_y
_atom_site_fract_z
Eu1 Eu 0.00000 0.00000 0.11479
Mn1_1 Mn 0.00000 0.50000 0.25000
Mn1_2 Mn  0.50000 0.00000 0.25000
Bi1_1 Bi 0.00000 0.50000 0.00000
Bi1_2 Bi  0.50000 0.00000 0.00000
Bi2 Bi 0.00000 0.00000 0.32872

loop_
_atom_site_moment.label
_atom_site_moment.crystalaxis_x
_atom_site_moment.crystalaxis_y
_atom_site_moment.crystalaxis_z
_atom_site_moment.symmform
_atom_site_moment.magnitude
Eu1 0.00000 0.00000 6.4 0,0,mz     6.4
Mn1_1 0.00000 0.00000 3.4 0,0,mz   3.4
Mn1_2 0.00000 0.00000 -3.4 0,0,mz  3.4

