#\#CIF_2.0
# Created by the Bilbao Crystallographic Server
# http://www.cryst.ehu.es
# Date: 21/02/2020 19:16:05
# parent_paper_4.5K_MnBi4Te7.cif

data_5yOhtAoR
_audit_creation_date            2020-02-21
_audit_creation_method          "Bilbao Crystallographic Server"

_citation_journal_abbrev        "PHYSICAL REVIEW B"
_citation_journal_volume        101
_citation_page_first            ?
_citation_page_last             ?
_citation_article_id            020412(R)
_citation_year                  2020
_citation_DOI                   10.1103/PhysRevB.101.020412

loop_
_citation_author_name
"L. Ding"
"C. Hu"
"F. Ye"
"E. Feng"
"N. Ni"
"H. Cao"



_atomic_positions_source_database_code_ICSD  .
_atomic_positions_source_other               .

_transition_temperature  13
_experiment_temperature  4.5

loop_
_irrep_id
_irrep_dimension
_irrep_small_dimension
_irrep_direction_type
_irrep_action
_irrep_modes_number
_irrep_presence
mA1-  1  1  .  primary  1  .

_exptl_crystal_magnetic_properties_details
;
NSD
Lattice parameters probably from a room temperature measurement
;

_active_magnetic_irreps_details
;
1k magnetic structure
k-maximal magnetic symmetry (1 possible)
1-dim irrep as primary
;

_parent_space_group.name_H-M_alt  'P -3 m 1'
_parent_space_group.IT_number                       164
_parent_space_group.transform_Pp_abc  'a,b,c;0,0,0'

loop_
_parent_propagation_vector.id
_parent_propagation_vector.kxkykz
k1 [0 0 1/2]

_parent_space_group.child_transform_Pp_abc  'a,b,2c;0,0,0'
_space_group_magn.transform_BNS_Pp_abc  'a,b,c;0,0,1/4'



_space_group_magn.number_BNS  165.96
_space_group_magn.name_BNS  "P_c -3 c 1"
_cell_length_a             4.34530
_cell_length_b             4.34530
_cell_length_c             47.41000
_cell_angle_alpha          90.00
_cell_angle_beta           90.00
_cell_angle_gamma          120.00

loop_
_space_group_symop_magn_operation.id
_space_group_symop_magn_operation.xyz
1 x,y,z,+1
2 -y,x-y,z,+1
3 -x+y,-x,z,+1
4 x-y,-y,-z,+1
5 y,x,-z,+1
6 -x,-x+y,-z,+1
7 -x,-y,-z+1/2,+1
8 y,-x+y,-z+1/2,+1
9 x-y,x,-z+1/2,+1
10 -x+y,y,z+1/2,+1
11 -y,-x,z+1/2,+1
12 x,x-y,z+1/2,+1

loop_
_space_group_symop_magn_centering.id
_space_group_symop_magn_centering.xyz
1 x,y,z,+1
2 x,y,z+1/2,-1

loop_
_atom_site_label
_atom_site_type_symbol
_atom_site_fract_x
_atom_site_fract_y
_atom_site_fract_z
_atom_site_occupancy
Mn1 Mn 0.00000 0.00000 0.25000 0.721
Bi1 Bi 0.00000 0.00000 0.25000 0.279
Bi2 Bi 0.33333 0.66667 0.04284 0.994
Mn2 Mn 0.33333 0.66667 0.04284 0.006
Bi3 Bi 0.33333 0.66667 0.17084 0.995
Mn3 Mn 0.33333 0.66667 0.17084 0.005
Te1 Te 0.00000 0.00000 0.00000 1.
Te2 Te 0.66667 0.33333 0.07929 1.
Te3 Te 0.00000 0.00000 0.13490 1.
Te4 Te 0.33333 0.66667 0.28418 1.

loop_
_atom_site_moment.label
_atom_site_moment.crystalaxis_x
_atom_site_moment.crystalaxis_y
_atom_site_moment.crystalaxis_z
_atom_site_moment.symmform
Mn1 0.00000 0.00000 4.01(9) 0,0,mz

