#\#CIF_2.0
# Created by the Bilbao Crystallographic Server
# http://www.cryst.ehu.es
# Date: 10/11/2020 

data_5yOhtAoR
_audit_creation_date            2020-11-10
_audit_creation_method          "Bilbao Crystallographic Server"

_citation_journal_abbrev        "J. Phys. C: Solid State Phys."
_citation_journal_volume        8
_citation_page_first            1697
_citation_page_last             1704
_citation_article_id            .
_citation_year                  1975
_citation_DOI                   10.1088/0022-3719/8/11/021

loop_
_citation_author_name
"J. Leciejewicz"
"Z. Zolnierek"
"S. Ligenza"
"R. Troc"
"H. Ptasiewicz"

_atomic_positions_source_database_code_ICSD  41944
_atomic_positions_source_other               .

_transition_temperature  245(3)
_experiment_temperature  4

loop_
_irrep_id
_irrep_dimension
_irrep_small_dimension
_irrep_direction_type
_irrep_action
_irrep_modes_number
_irrep_presence
mGM1-  1  1  .  primary  1  .

_exptl_crystal_magnetic_properties_details
;
NPD
;

_active_magnetic_irreps_details
;
1k magnetic structure
k-maximal magnetic symmetry 
1-dim irrep as primary
;

_parent_space_group.name_H-M_alt  'P -3 m 1'
_parent_space_group.IT_number                       164
_parent_space_group.transform_Pp_abc  'a,b,c;0,0,0'

loop_
_parent_propagation_vector.id
_parent_propagation_vector.kxkykz
k1 [0 0 0]

_parent_space_group.child_transform_Pp_abc  'a,b,c;0,0,0'
_space_group_magn.transform_BNS_Pp_abc  'a,b,c;0,0,0'



_space_group_magn.number_BNS  164.88
_space_group_magn.name_BNS  "P -3' m' 1"
_cell_length_a             3.86300
_cell_length_b             3.86300
_cell_length_c             6.86700
_cell_angle_alpha          90.00
_cell_angle_beta           90.00
_cell_angle_gamma          120.00

loop_
_space_group_symop_magn_operation.id
_space_group_symop_magn_operation.xyz
1 x,y,z,+1 
2 -y,x-y,z,+1 
3 -x+y,-x,z,+1 
4 x-y,-y,-z,+1 
5 y,x,-z,+1 
6 -x,-x+y,-z,+1 
7 -x,-y,-z,-1 
8 y,-x+y,-z,-1 
9 x-y,x,-z,-1 
10 -x+y,y,z,-1 
11 -y,-x,z,-1 
12 x,x-y,z,-1 

loop_
_space_group_symop_magn_centering.id
_space_group_symop_magn_centering.xyz
1 x,y,z,+1 

loop_
_atom_site_label
_atom_site_type_symbol
_atom_site_fract_x
_atom_site_fract_y
_atom_site_fract_z
U1 U 0.33333 0.66667 0.30540
N1 N 0.33333 0.66667 0.63060
Se1 Se 0.00000 0.00000 0.00000

loop_
_atom_site_moment.label
_atom_site_moment.crystalaxis_x
_atom_site_moment.crystalaxis_y
_atom_site_moment.crystalaxis_z
_atom_site_moment.symmform
_atom_site_moment.magnitude
U1 0.00000 0.00000 2.3 0,0,mz  2.3

