#\#CIF_2.0
# Created by the Bilbao Crystallographic Server
# http://www.cryst.ehu.es
# Date: 09/05/2021 

data_5yOhtAoR
_audit_creation_date            2021-05-09
_audit_creation_method          "Bilbao Crystallographic Server"

_citation_journal_abbrev        "PHYSICAL REVIEW B"
_citation_journal_volume        103
_citation_page_first            .
_citation_page_last             .
_citation_article_id            134438
_citation_year                  2021
_citation_DOI                   10.1103/PhysRevB.103.134438

loop_
_citation_author_name
"K. Dey"
"S. Sauerland"
"B. Ouladdiaf"
"K. Beauvois"
"H. Wadepohl"
"R. Klingeler"

_atomic_positions_source_database_code_ICSD  .
_atomic_positions_source_other               .

_transition_temperature  22(1)
_experiment_temperature  2

loop_
_irrep_id
_irrep_dimension
_irrep_small_dimension
_irrep_direction_type
_irrep_action
_irrep_modes_number
_irrep_presence
mT2+T3+  2  2  general  primary  2  .
mT1+  1  1  .  secondary 1 no

_exptl_crystal_magnetic_properties_details
;
NSD
The direction of the spins on the basal ab plane is undetermined. The direction is arbitrarily chosen along a. There is no special spin direction on the ab plane of a higher symmetry.
See #1.579 for a model of the same structure from NPD data, with a rather different moment magnitude.
;

_active_magnetic_irreps_details
;
1k magnetic structure
2-dim physically irreducible irrep along a general direction (there are no special directions with higher symmetry) as primary.
One 1-dim irrep is symmetry allowed as secondary, but not present in the model. It corresponds to the mz component of the Ni spins, which is allowed by the MSG.
;

_parent_space_group.name_H-M_alt  'R -3'
_parent_space_group.IT_number                       148
_parent_space_group.transform_Pp_abc  'a,b,c;0,0,0'

loop_
_parent_propagation_vector.id
_parent_propagation_vector.kxkykz
k1 [0 0 3/2]

_parent_space_group.child_transform_Pp_abc  'a,b,2c;0,0,0'
_space_group_magn.transform_BNS_Pp_abc  '1/3a-1/3b+1/3c,b,c;0,0,0'

_space_group_magn.number_BNS  2.7
_space_group_magn.name_BNS  "P_S -1"
_cell_length_a             5.02290
_cell_length_b             5.02290
_cell_length_c             27.54400
_cell_angle_alpha          90.00
_cell_angle_beta           90.00
_cell_angle_gamma          120.00

loop_
_space_group_symop_magn_operation.id
_space_group_symop_magn_operation.xyz
1 x,y,z,+1 
2 -x,-y,-z,+1 

loop_
_space_group_symop_magn_centering.id
_space_group_symop_magn_centering.xyz
1 x,y,z,+1 
2 x+1/3,y+2/3,z+1/3,+1 
3 x+2/3,y+1/3,z+2/3,+1 
4 x,y,z+1/2,-1 
5 x+1/3,y+2/3,z+5/6,-1 
6 x+2/3,y+1/3,z+1/6,-1 

loop_
_atom_site_label
_atom_site_type_symbol
_atom_site_fract_x
_atom_site_fract_y
_atom_site_fract_z
Ni1 Ni 0.00000 0.00000 0.17685
Ti1 Ti 0.00000 0.00000 0.06690
O1_1 O 0.33440 0.00520 0.12330
O1_2 O  0.99480 0.32920 0.12330
O1_3 O  0.67080 0.66560 0.12330

loop_
_atom_site_moment.label
_atom_site_moment.crystalaxis_x
_atom_site_moment.crystalaxis_y
_atom_site_moment.crystalaxis_z
_atom_site_moment.symmform
_atom_site_moment.magnitude
Ni1 1.46(1) 0.00000 0.00000 mx,my,mz  1.46(1)

