#\#CIF_2.0
# Created by the Bilbao Crystallographic Server
# http://www.cryst.ehu.es
# Date: 21/05/2020

data_5yOhtAoR
_audit_creation_date            2020-05-21
_audit_creation_method          "Bilbao Crystallographic Server"

_citation_journal_abbrev        "PHYSICAL REVIEW MATERIALS"
_citation_journal_volume        4
_citation_page_first            ?
_citation_page_last             ?
_citation_article_id            044405
_citation_year                  2020
_citation_DOI                   10.1103/PhysRevMaterials.4.044405

loop_
_citation_author_name
"J.A. Cooley"
"J.D. Bocarsly"
"E.C. Schueller"
"E.E. Levin"
"E.E. Rodriguez"
"A. Huq"
"S.H. Lapidus"
"S.D. Wilson"
"R. Seshadri"



_atomic_positions_source_database_code_ICSD  .
_atomic_positions_source_other               .

_transition_temperature  236
_experiment_temperature  200

loop_
_irrep_id
_irrep_dimension
_irrep_small_dimension
_irrep_direction_type
_irrep_action
_irrep_modes_number
_irrep_presence
mGM5+  2  2  special  primary  2  .

_exptl_crystal_magnetic_properties_details
;
NPD
Below 186K canting of the Mn moments within the same MSG (see #0.396)
Below 140K, an incommensurate magnetic phase with incommensurate k along c and a k=0 component is reported
;

_active_magnetic_irreps_details
;
1k incommensurate structure
2-dim irrep along a special direction as primary
FM along c
;

_parent_space_group.name_H-M_alt  'P 6_3/m m c'
_parent_space_group.IT_number                       194
_parent_space_group.transform_Pp_abc  'a,b,c;0,0,0'

loop_
_parent_propagation_vector.id
_parent_propagation_vector.kxkykz
k1 [0 0 0]

_parent_space_group.child_transform_Pp_abc  'a,a+2b,c;0,0,0'
_space_group_magn.transform_BNS_Pp_abc  'a,b,c;0,0,0'



_space_group_magn.number_BNS  63.462
_space_group_magn.name_BNS  "C m' c' m"
_cell_length_a             4.3308
_cell_length_b             7.5011
_cell_length_c             5.5610
_cell_angle_alpha          90.00
_cell_angle_beta           90.00
_cell_angle_gamma          90.00

loop_
_space_group_symop_magn_operation.id
_space_group_symop_magn_operation.xyz
1 x,y,z,+1
2 -x,-y,z+1/2,+1
3 -x,-y,-z,+1
4 x,y,-z+1/2,+1
5 x,-y,-z,-1
6 -x,y,-z+1/2,-1
7 -x,y,z,-1
8 x,-y,z+1/2,-1

loop_
_space_group_symop_magn_centering.id
_space_group_symop_magn_centering.xyz
1 x,y,z,+1
2 x+1/2,y+1/2,z,+1

loop_
_atom_site_label
_atom_site_type_symbol
_atom_site_fract_x
_atom_site_fract_y
_atom_site_fract_z
Ga1 Ga 0.00000 0.66667 0.25000
Mn1 Mn 0.00000 0.00000 0.00000
Pt1 Pt 0.00000 0.33333 0.25000

loop_
_atom_site_moment.label
_atom_site_moment.crystalaxis_x
_atom_site_moment.crystalaxis_y
_atom_site_moment.crystalaxis_z
_atom_site_moment.symmform
Mn1 0.00000 0.00000 3.1(6) 0,my,mz

