#\#CIF_2.0
# Created by the Bilbao Crystallographic Server
# http://www.cryst.ehu.es
# Date: 09/07/2020


data_5yOhtAoR
_audit_creation_date            2020-07-09
_audit_creation_method          "Bilbao Crystallographic Server"

_citation_journal_abbrev        "PHYSICAL REVIEW B"
_citation_journal_volume        77
_citation_page_first            ?
_citation_page_last             ?
_citation_article_id            094495
_citation_year                  2008
_citation_DOI                   10.1103/PhysRevB.77.094425

loop_
_citation_author_name
"A. Malachias"
"E. Granado"
"R. Lora-Serrano"
"P.G. Pagliuso"
"C.A. Perez"



_atomic_positions_source_database_code_ICSD  635826
_atomic_positions_source_other               .

_transition_temperature  44
_experiment_temperature  12

loop_
_irrep_id
_irrep_dimension
_irrep_small_dimension
_irrep_direction_type
_irrep_action
_irrep_modes_number
_irrep_presence
mM3+  3  1  .  primary 1  .

_exptl_crystal_magnetic_properties_details
;
Resonant x-ray magnetic diffraction
Moment modulus is undetermined. It is given here an arbitrary value.
position structure from a room temperature determinature by another study, retrieved from ICSD.
;

_active_magnetic_irreps_details
;
1k magnetic structure
k-maximal magnetic symmetry
1-dim small irrep as primary (3 k-vectors in the irrep star)
;

_parent_space_group.name_H-M_alt  'P m -3 m'
_parent_space_group.IT_number                       221
_parent_space_group.transform_Pp_abc  'a,b,c;0,0,0'

loop_
_parent_propagation_vector.id
_parent_propagation_vector.kxkykz
k1 [1/2 1/2 0]

_parent_space_group.child_transform_Pp_abc  '2a,2b,c;0,0,0'
_space_group_magn.transform_BNS_Pp_abc  '1/2a+1/2b,-1/2a+1/2b,c;0,0,0'



_space_group_magn.number_BNS  127.397
_space_group_magn.name_BNS  "P_C 4/m b m"
_cell_length_a             9.21360
_cell_length_b             9.21360
_cell_length_c             4.60680
_cell_angle_alpha          90.00
_cell_angle_beta           90.00
_cell_angle_gamma          90.00

loop_
_space_group_symop_magn_operation.id
_space_group_symop_magn_operation.xyz
1 x,y,z,+1
2 -y,x,z,+1
3 y,-x,z,+1
4 y,x+1/2,-z,+1
5 -y,-x+1/2,-z,+1
6 -x,-y,z,+1
7 -x,y+1/2,-z,+1
8 x,-y+1/2,-z,+1
9 -x,-y,-z,+1
10 y,-x,-z,+1
11 -y,x,-z,+1
12 -y,-x+1/2,z,+1
13 y,x+1/2,z,+1
14 x,y,-z,+1
15 x,-y+1/2,z,+1
16 -x,y+1/2,z,+1

loop_
_space_group_symop_magn_centering.id
_space_group_symop_magn_centering.xyz
1 x,y,z,+1
2 x+1/2,y+1/2,z,+1
3 x,y+1/2,z,-1
4 x+1/2,y,z,-1

loop_
_atom_site_label
_atom_site_type_symbol
_atom_site_fract_x
_atom_site_fract_y
_atom_site_fract_z
Gd1 Gd 0.00000 0.00000 0.00000
In1_1 In 0.00000 0.25000 0.50000
In1_2 In  0.25000 0.25000 0.00000

loop_
_atom_site_moment.label
_atom_site_moment.crystalaxis_x
_atom_site_moment.crystalaxis_y
_atom_site_moment.crystalaxis_z
_atom_site_moment.symmform
Gd1 0.00000 0.00000 1.00000 0,0,mz

