#\#CIF_2.0
# Created by the Bilbao Crystallographic Server
# http://www.cryst.ehu.es
# Date: 25/08/2019


data_5yOhtAoR
_audit_creation_date            2019-08-25
_audit_creation_method          "Bilbao Crystallographic Server"

_citation_journal_abbrev        "Phys. Rev. B"
_citation_journal_volume        44
_citation_page_first            4716
_citation_page_last             4719
_citation_article_id            ?
_citation_year                  1991
_citation_DOI                   10.1103/PhysRevB.44.4716

loop_
_citation_author_name
"J.L. Garcia-Muoz"
"J. Rodriguez-Carvajal"
"X. Obradors"
"M. Vallet-Reg"
"J. Gonzalez-Calbet"
"M. Parras"





_atomic_positions_source_database_code_ICSD  79431
_atomic_positions_source_other               .

_transition_temperature  17
_experiment_temperature  1.5

loop_
_irrep_id
_irrep_dimension
_irrep_small_dimension
_irrep_direction_type
_irrep_action
_irrep_modes_number
_irrep_presence
mGM2  1  1  .  primary  12  .

_exptl_crystal_magnetic_properties_details
;
NPD
;

_active_magnetic_irreps_details
;
1k magnetic structure
k-maximal magnetic symmetry (4 possible)
1-dim irrep active
;

_parent_space_group.name_H-M_alt  'P n a 2_1'
_parent_space_group.IT_number                       33
_parent_space_group.transform_Pp_abc  'a,b,c;0,0,0'

loop_
_parent_propagation_vector.id
_parent_propagation_vector.kxkykz
k1 [0 0 0]

_parent_space_group.child_transform_Pp_abc  'a,b,c;0,0,0'
_space_group_magn.transform_BNS_Pp_abc  'a,b,c;0,0,0'



_space_group_magn.number_BNS  33.148
_space_group_magn.name_BNS  "P n' a' 2_1"
_cell_length_a             10.73530
_cell_length_b             3.45750
_cell_length_c             12.37040
_cell_angle_alpha          90.00
_cell_angle_beta           90.00
_cell_angle_gamma          90.00

loop_
_space_group_symop_magn_operation.id
_space_group_symop_magn_operation.xyz
1 x,y,z,+1
2 -x,-y,z+1/2,+1
3 -x+1/2,y+1/2,z+1/2,-1
4 x+1/2,-y+1/2,z,-1

loop_
_space_group_symop_magn_centering.id
_space_group_symop_magn_centering.xyz
1 x,y,z,+1

loop_
_atom_site_label
_atom_site_type_symbol
_atom_site_fract_x
_atom_site_fract_y
_atom_site_fract_z
Tm1 Tm 0.20800 0.23400 0.00000
Tm2 Tm 0.04000 0.22500 0.33080
Cu1 Cu 0.98920 0.65000 0.11400
Cu2 Cu 0.25980 0.67200 0.21600
O1 O 0.17300 0.72400 0.35800
O2 O 0.32300 0.72200 0.06500
O3 O 0.12700 0.30400 0.16700
O4 O 0.42800 0.77600 0.26200
O5 O 0.42400 0.22800 0.47700

loop_
_atom_site_moment.label
_atom_site_moment.crystalaxis_x
_atom_site_moment.crystalaxis_y
_atom_site_moment.crystalaxis_z
_atom_site_moment.symmform
Tm1 2.6(1) 0.00000 -3.00000 mx,my,mz
Tm2 2.6 0.00000 -3.00000 mx,my,mz
Cu1 -0.9(1) 0.00000 0.00000 mx,my,mz
Cu2 -0.9 0.00000 0.00000 mx,my,mz

