#\#CIF_2.0
# Created by the Bilbao Crystallographic Server
# http://www.cryst.ehu.es
# Date: 02/02/2021 

data_5yOhtAoR
_audit_creation_date            2021-02-02
_audit_creation_method          "Bilbao Crystallographic Server"

_citation_journal_abbrev        "Journal of Alloys and Compounds"
_citation_journal_volume        191
_citation_page_first            263
_citation_page_last             270
_citation_article_id            .
_citation_year                  1993
_citation_DOI                   10.1016/0925-8388(93)90075-X

loop_
_citation_author_name
"R. Welter"
"G. Venturini"
"D. Fruchart"
"B. Malaman"

_atomic_positions_source_database_code_ICSD  72479
_atomic_positions_source_other               .

_transition_temperature  34
_experiment_temperature  1.6

loop_
_irrep_id
_irrep_dimension
_irrep_small_dimension
_irrep_direction_type
_irrep_action
_irrep_modes_number
_irrep_presence
mGM3+  1  1  .  primary  2  .
mM5-   2  2  special primary 1 .

_exptl_crystal_magnetic_properties_details
;
NPD
The direction of Mn moment component on the basal plane is undetermined. Here a direction of maximal symmetry is chosen.
Between 382K and 34K, only the Mn moments are ordered (along z) in an AFM arrangement with a different MSG (see #1.493)
FM along c
Mn moment canting angle: 30(1) degrees
See #1.494 for a different model of the structure at a similar temperature, without magnetic ordering of the Nd atoms.
;

_active_magnetic_irreps_details
;
2k magnetic structure
k-maximal symmetry
2 irreps active as primary 
;

_parent_space_group.name_H-M_alt  'I 4/m m m'
_parent_space_group.IT_number                       139
_parent_space_group.transform_Pp_abc  'a,b,c;0,0,0'

loop_
_parent_propagation_vector.id
_parent_propagation_vector.kxkykz
k1 [0 0 0]
k2 [1 1 1]

_parent_space_group.child_transform_Pp_abc  'a,b,c;0,0,0'
_space_group_magn.transform_BNS_Pp_abc  'c,a,b;1/4,1/4,1/4'



_space_group_magn.number_BNS  59.410
_space_group_magn.name_BNS  "P m m' n'"
_cell_length_a             3.996(3)
_cell_length_b             3.996
_cell_length_c             10.478(7)
_cell_angle_alpha          90.00
_cell_angle_beta           90.00
_cell_angle_gamma          90.00

loop_
_space_group_symop_magn_operation.id
_space_group_symop_magn_operation.xyz
1 x,y,z,+1 
2 -x+1/2,-y+1/2,z+1/2,+1 
3 -x+1/2,-y+1/2,-z+1/2,+1 
4 x,y,-z,+1 
5 x+1/2,-y+1/2,-z+1/2,-1 
6 -x,y,-z,-1 
7 -x,y,z,-1 
8 x+1/2,-y+1/2,z+1/2,-1 

loop_
_space_group_symop_magn_centering.id
_space_group_symop_magn_centering.xyz
1 x,y,z,+1 

loop_
_atom_site_label
_atom_site_type_symbol
_atom_site_fract_x
_atom_site_fract_y
_atom_site_fract_z
Nd1 Nd 0.00000 0.00000 0.00000
Mn1 Mn 0.00000 0.50000 0.25000
Si1 Si 0.00000 0.00000 0.3797(5)

loop_
_atom_site_moment.label
_atom_site_moment.crystalaxis_x
_atom_site_moment.crystalaxis_y
_atom_site_moment.crystalaxis_z
_atom_site_moment.symmform
_atom_site_moment.magnitude
Nd1 0.00000 0.00000 2.83(4) 0,0,mz  2.83(4)
Mn1 0.00000 -0.81 1.39 0,my,mz       1.61(5)

