#\#CIF_2.0
# Created by the Bilbao Crystallographic Server
# http://www.cryst.ehu.es


data_5yOhtAoR
_audit_creation_date            2018-03-20
_audit_creation_method          "Bilbao Crystallographic Server"

_citation_journal_abbrev        "PHYSICAL REVIEW B"
_citation_journal_volume        91
_citation_page_first            ?
_citation_page_last             ?
_citation_article_id            064418
_citation_year                  2015
_citation_DOI                   10.1103/PhysRevB.91.064418

loop_
_citation_author_name
"Q. Zhang"
"W. Tian"
"S.G. Peterson"
"K.W. Dennis"
"D. Vaknin"




_atomic_positions_source_database_code_ICSD  195499
_atomic_positions_source_other               .

_transition_temperature  35
_experiment_temperature  10

loop_
_irrep_id
_irrep_dimension
_irrep_small_dimension
_irrep_direction_type
_irrep_action
_irrep_modes_number
_irrep_presence
mGM5-  2  2  special  primary  2  .

_exptl_crystal_magnetic_properties_details
;
NPD
Above 35K only Mn spins are ordered along c (see #0.186). Below 2K the collinearity between Mn and Ce spins is lost, corresponding to a general direction of the order parameter for the same active irrep, with a lower symmetry (see #0.188).
;

_active_magnetic_irreps_details
;
k-maximal magnetic symmetry (7 possible)
2-dim irrep active
collinear structure
spin direction on the ab plane cannot be determined; the direction chosen corresponds to a higher symmetry.
;

_parent_space_group.name_H-M_alt  'P  4/n  m  m'
_parent_space_group.IT_number                       129
_parent_space_group.transform_Pp_abc  'a,b,c;0,0,0'

loop_
_parent_propagation_vector.id
_parent_propagation_vector.kxkykz
k1 [0 0 0]

_parent_space_group.child_transform_Pp_abc  'a,b,c;0,0,0'
_space_group_magn.transform_BNS_Pp_abc  'b,-a,c;0,0,0'

_space_group_magn.number_BNS  59.407
_space_group_magn.name_BNS  "Pm'mn"
_cell_length_a             4.08370
_cell_length_b             4.08370
_cell_length_c             8.95670
_cell_angle_alpha          90.00
_cell_angle_beta           90.00
_cell_angle_gamma          90.00

loop_
_space_group_symop_magn_operation.id
_space_group_symop_magn_operation.xyz
1 x,y,z,+1
2 -x,y+1/2,-z,+1
3 -x+1/2,y,z,+1
4 x+1/2,y+1/2,-z,+1
5 x+1/2,-y,-z,-1
6 -x+1/2,-y+1/2,z,-1
7 -x,-y,-z,-1
8 x,-y+1/2,z,-1

loop_
_space_group_symop_magn_centering.id
_space_group_symop_magn_centering.xyz
1 x,y,z,+1

loop_
_atom_site_label
_atom_site_type_symbol
_atom_site_fract_x
_atom_site_fract_y
_atom_site_fract_z
Ce1 Ce 0.25000 0.25000 0.12870
Mn1 Mn 0.75000 0.25000 0.50000
As1 As 0.25000 0.25000 0.67200
O1 O 0.75000 0.25000 0.00000

loop_
_atom_site_moment.label
_atom_site_moment.crystalaxis_x
_atom_site_moment.crystalaxis_y
_atom_site_moment.crystalaxis_z
_atom_site_moment.symmform
Ce1 0.7 0.00000 0.00000 mx,0,0
Mn1 -3.3 0.00000 0.00000 mx,0,0


