#\#CIF_2.0
# Created by the Bilbao Crystallographic Server
# http://www.cryst.ehu.es
# Date: 11/19/2017 16:53:50
# Database entry: 0.72 CaMnBi2
# Cif-like file for the case 0.72


data_5yOhtAoR
_audit_creation_date            2017-11-19
_audit_creation_method          "Bilbao Crystallographic Server"

_chemical_name_systematic
;
;
_chemical_name_common                    ?
_chemical_formula_moiety                 ?
_chemical_formula_structural             ?
_chemical_formula_analytical             ?
_chemical_formula_iupac                  ?
_chemical_formula_sum                    'Ca Mn Bi2'
_chemical_formula_weight                 ?
_chemical_melting_point                  ?
_chemical_compound_source                ?
_chemical_absolute_configuration         .


_citation_journal_abbrev        "PHYSICAL REVIEW B"
_citation_journal_volume        90
_citation_page_first            ?
_citation_page_last             ?
_citation_article_id            075120
_citation_year                  2014
_citation_DOI                   10.1103/PhysRevB.90.075120

loop_
_citation_author_name
"Y.F. Guo"
"A.J. Princep"
"X. Zhang"
"P. Manuel"
"D. Khalyavin"
"I.I. Mazin"
"Y.G. Shi"
"A.T. Boothroyd"






_atomic_positions_source_database_code_ICSD   10454
_atomic_positions_source_other               .

_transition_temperature     300
_experiment_temperature     10

loop_
_irrep_id
_irrep_dimension
_irrep_small_dimension
_irrep_direction_type
_irrep_action
_irrep_modes_number
_irrep_presence
? ? ? ? ? ? ?

_exptl_crystal_magnetic_properties_details
;
NPD
cell parameters taken from the original reference. atomic positions from the indicated icsd entry
origin choice 2 (inversion center at the origin)
;

_active_magnetic_irreps_details
;
1k magnetic structure
k-maximal magnetic symmetry (6 possible)
primary irrep 1-dim
;

_parent_space_group.name_H-M_alt  'P  4/n  m  m'
_parent_space_group.IT_number                       129
_parent_space_group.transform_Pp_abc  'a,b,c;0,0,0'

loop_
_parent_propagation_vector.id
_parent_propagation_vector.kxkykz
k1 [0 0 0]

_parent_space_group.child_transform_Pp_abc  'a,b,c;0,0,0'
_space_group_magn.transform_BNS_Pp_abc  'a,b,c;0,0,0'


_space_group_magn.number_BNS  129.416
_space_group_magn.name_BNS  "P  4'/n'  m'  m"
_space_group_magn.point_group_name  "4'/m'm'm"
_space_group_magn.point_group_number  "15.5.57"
_cell_length_a                 4.4978(1)
_cell_length_b                 4.4978(1)
_cell_length_c                 11.0692(6)
_cell_angle_alpha              90.00
_cell_angle_beta               90.00
_cell_angle_gamma              90.00

loop_
_space_group_symop_magn_operation.id
_space_group_symop_magn_operation.xyz
1 x,y,z,+1
2 x+1/2,-y,-z,+1
3 -x,y+1/2,-z,+1
4 -x+1/2,-y+1/2,z,+1
5 y+1/2,-x,-z,+1
6 -y,x+1/2,-z,+1
7 -y+1/2,-x+1/2,z,+1
8 y,x,z,+1
9 -y+1/2,x,z,-1
10 y,-x+1/2,z,-1
11 y+1/2,x+1/2,-z,-1
12 -y,-x,-z,-1
13 -x,-y,-z,-1
14 -x+1/2,y,z,-1
15 x,-y+1/2,z,-1
16 x+1/2,y+1/2,-z,-1

loop_
_space_group_symop_magn_centering.id
_space_group_symop_magn_centering.xyz
1 x,y,z,+1

loop_
_atom_site_label
_atom_site_type_symbol
_atom_site_fract_x
_atom_site_fract_y
_atom_site_fract_z
_atom_site_occupancy
Ca1 Ca 0.25000 0.25000 0.27600 1
Mn1 Mn 0.75000 0.25000 0.00000 1
Bi1 Bi 0.75000 0.25000 0.50000 1
Bi2 Bi 0.25000 0.25000 0.83850 1

loop_
_atom_site_moment.label
_atom_site_moment.crystalaxis_x
_atom_site_moment.crystalaxis_y
_atom_site_moment.crystalaxis_z
_atom_site_moment.symmform
Mn1 0.0 0.0 3.73(5) 0,0,mz

