#\#CIF_2.0
# Created by the Bilbao Crystallographic Server
# http://www.cryst.ehu.es
# Date: 29/10/2020

data_5yOhtAoR
_audit_creation_date            2020-10-29
_audit_creation_method          "Bilbao Crystallographic Server"

_citation_journal_abbrev        "J. Phys.: Condens. Matter"
_citation_journal_volume        22
_citation_page_first            ?
_citation_page_last             ?
_citation_article_id            426001
_citation_year                  2010
_citation_DOI                   10.1088/0953-8984/22/42/426001

loop_
_citation_author_name
"D. Sheptyakov"
"N.Z. Ali"
"M. Jansen"



_atomic_positions_source_database_code_ICSD  180531
_atomic_positions_source_other               .

_transition_temperature  737
_experiment_temperature  300

loop_
_irrep_id
_irrep_dimension
_irrep_small_dimension
_irrep_direction_type
_irrep_action
_irrep_modes_number
_irrep_presence
mGM1-  1  1  .  primary 6  .

_exptl_crystal_magnetic_properties_details
;
NPD
A structural phase transition takes place  at 350K with the system already magnetically ordered. The structure distorts from a magnetic phase of tetragonal symmetry to one with a distorted positional structure with space group Pbca, while the spin arrangement remains essentially unchanged. The spin order is described in the two phases by the same irrep mGM5- with respect to the cubic space group Fd-3m of the paramagnetic phase.
The space group Pbca is taken here as parent symmetry.
;

_active_magnetic_irreps_details
;
1k magnetic structure
k-maximal magnetic symmetry (8 possible)
1-dim irrep as primary
;

_parent_space_group.name_H-M_alt  'P b c a'
_parent_space_group.IT_number                       61
_parent_space_group.transform_Pp_abc  'a,b,c;0,0,0'

loop_
_parent_propagation_vector.id
_parent_propagation_vector.kxkykz
k1 [0 0 0]

_parent_space_group.child_transform_Pp_abc  'a,b,c;0,0,0'
_space_group_magn.transform_BNS_Pp_abc  'a,b,c;0,0,0'



_space_group_magn.number_BNS  61.437
_space_group_magn.name_BNS  "P b' c' a'"
_cell_length_a             5.71970
_cell_length_b             11.51410
_cell_length_c             16.34570
_cell_angle_alpha          90.00
_cell_angle_beta           90.00
_cell_angle_gamma          90.00

loop_
_space_group_symop_magn_operation.id
_space_group_symop_magn_operation.xyz
1 x,y,z,+1
2 x+1/2,-y+1/2,-z,+1
3 -x,y+1/2,-z+1/2,+1
4 -x+1/2,-y,z+1/2,+1
5 -x,-y,-z,-1
6 -x+1/2,y+1/2,z,-1
7 x,-y+1/2,z+1/2,-1
8 x+1/2,y,-z+1/2,-1

loop_
_space_group_symop_magn_centering.id
_space_group_symop_magn_centering.xyz
1 x,y,z,+1

loop_
_atom_site_label
_atom_site_type_symbol
_atom_site_fract_x
_atom_site_fract_y
_atom_site_fract_z
Rb1 Rb 0.74900 0.51050 0.43710
Rb2 Rb 0.30090 0.23900 0.68660
Fe1 Fe 0.75540 0.00560 0.19000
Fe2 Fe 0.78420 0.23960 0.56310
O1 O 0.44310 0.98250 0.22080
O2 O 0.82850 0.90220 0.10580
O3 O 0.80280 0.15510 0.14840
O4 O 0.57660 0.28360 0.48050

loop_
_atom_site_moment.label
_atom_site_moment.crystalaxis_x
_atom_site_moment.crystalaxis_y
_atom_site_moment.crystalaxis_z
_atom_site_moment.symmform
_atom_site_moment.magnitude
Fe1 0.00000 0.00000 3.83 mx,my,mz  3.83
Fe2 0.00000 0.00000 -3.83 mx,my,mz 3.83

