#\#CIF_2.0
# Created by the Bilbao Crystallographic Server
# http://www.cryst.ehu.es
# Date: 29/04/2020


data_5yOhtAoR
_audit_creation_date            2020-04-29
_audit_creation_method          "Bilbao Crystallographic Server"

_citation_journal_abbrev        "PHYSICAL REVIEW B"
_citation_journal_volume        96
_citation_page_first            ?
_citation_page_last             ?
_citation_article_id            014427
_citation_year                  2017
_citation_DOI                   10.1103/PhysRevB.96.014427

loop_
_citation_author_name
"A. Kumar"
"S.M. Yusuf"
"C. Ritter"



_atomic_positions_source_database_code_ICSD  163728
_atomic_positions_source_other               .

_transition_temperature  73
_experiment_temperature  20

loop_
_irrep_id
_irrep_dimension
_irrep_small_dimension
_irrep_direction_type
_irrep_action
_irrep_modes_number
_irrep_presence
mGM4+  1  1  .  primary  4  .

_exptl_crystal_magnetic_properties_details
;
NPD
Position structure from a determination at 10K by a different study, retrieved from icsd.
The reference reports that the absolute sign of the FM component along b of the Mn moment cannot be determined, and a positive value is chosen. See (#0.288) for another model where the sign of this component is negative, and no ambiguity about its sign is mentioned.
Below 15K Nd moments also become ordered within the same MSG (see #0.371 and #0.289), and the y component of the Mn has instead a negative value, implying a reorientatio of the Mn moments.
See (#0.288 and #0.289) for alternative models of the two phases, which would imply no Mn spin reorientation, in contrast with this model.
;

_active_magnetic_irreps_details
;
1k magnetic structure
k-maximal magnetic symmetry
1-dim irrep as primary
FM along b
;

_parent_space_group.name_H-M_alt  'P n m a'
_parent_space_group.IT_number                       62
_parent_space_group.transform_Pp_abc  'a,b,c;0,0,0'

loop_
_parent_propagation_vector.id
_parent_propagation_vector.kxkykz
k1 [0 0 0]

_parent_space_group.child_transform_Pp_abc  'a,b,c;0,0,0'
_space_group_magn.transform_BNS_Pp_abc  'a,b,c;0,0,0'



_space_group_magn.number_BNS  62.448
_space_group_magn.name_BNS  "P n' m a'"
_cell_length_a             5.71270
_cell_length_b             7.58010
_cell_length_c             5.41690
_cell_angle_alpha          90.00
_cell_angle_beta           90.00
_cell_angle_gamma          90.00

loop_
_space_group_symop_magn_operation.id
_space_group_symop_magn_operation.xyz
1 x,y,z,+1
2 -x,y+1/2,-z,+1
3 -x,-y,-z,+1
4 x,-y+1/2,z,+1
5 x+1/2,-y+1/2,-z+1/2,-1
6 -x+1/2,-y,z+1/2,-1
7 -x+1/2,y+1/2,z+1/2,-1
8 x+1/2,y,-z+1/2,-1

loop_
_space_group_symop_magn_centering.id
_space_group_symop_magn_centering.xyz
1 x,y,z,+1

loop_
_atom_site_label
_atom_site_type_symbol
_atom_site_fract_x
_atom_site_fract_y
_atom_site_fract_z
Nd1 Nd 0.06080 0.25000 0.98740
Mn1 Mn 0.00000 0.00000 0.50000
O1 O 0.47270 0.25000 0.08610
O2 O 0.31370 0.04520 0.70990

loop_
_atom_site_moment.label
_atom_site_moment.crystalaxis_x
_atom_site_moment.crystalaxis_y
_atom_site_moment.crystalaxis_z
_atom_site_moment.symmform
Nd1 0.00000 0.00000 0.00000 0,my,0
Mn1 2.36(2) 1.2(1) 0.00000 mx,my,mz

