#\#CIF_2.0
# Created by the Bilbao Crystallographic Server
# http://www.cryst.ehu.es
# Date: 24/05/2020

data_5yOhtAoR
_audit_creation_date            2020-05-24
_audit_creation_method          "Bilbao Crystallographic Server"

_citation_journal_abbrev        "J. Mater. Chem."
_citation_journal_volume        22
_citation_page_first            9522
_citation_page_last             9538
_citation_article_id            ?
_citation_year                  2012
_citation_DOI                   10.1039/c2jm30957b

loop_
_citation_author_name
"E. Zepeda-Alarcon"
"H. Nakotte"
"A.F. Gualtieri"
"G. King"
"K. Page"
"S.C. Vogel"
"H.-W. Wang"
"H.-R. Wenk"



_atomic_positions_source_database_code_ICSD  184728
_atomic_positions_source_other               .

_transition_temperature  230
_experiment_temperature  4

loop_
_irrep_id
_irrep_dimension
_irrep_small_dimension
_irrep_direction_type
_irrep_action
_irrep_modes_number
_irrep_presence
mGM1-  1  1  .  primary  1  .

_exptl_crystal_magnetic_properties_details
;
NPD
Position structure from a determination at 300K
A model  with only the site Fe2/Co1 ordered with non-null magnetic moments and different MSG (Cmm'm'(a,b,c;0,0,0)) can equally fit the data. This second structure allows however weak FM along a, which is not reported.
;

_active_magnetic_irreps_details
;
1k magnetic structure
k-maximal magnetic symmetry (8 possible)
1-dim irrep as primary
The magnetic point group m'm'm' of the structure allows linear magnetoelectricity, which is forbidden for the other alternative Cmm'm' structure.
;

_parent_space_group.name_H-M_alt  'C m m m'
_parent_space_group.IT_number                       65
_parent_space_group.transform_Pp_abc  'a,b,c;0,0,0'

loop_
_parent_propagation_vector.id
_parent_propagation_vector.kxkykz
k1 [0 0 0]

_parent_space_group.child_transform_Pp_abc  'a,b,c;0,0,0'
_space_group_magn.transform_BNS_Pp_abc  'a,b,c;0,0,0'



_space_group_magn.number_BNS  65.487
_space_group_magn.name_BNS  "C m' m' m'"
_cell_length_a             10.96190
_cell_length_b             7.69420
_cell_length_c             5.46760
_cell_angle_alpha          90.00
_cell_angle_beta           90.00
_cell_angle_gamma          90.00

loop_
_space_group_symop_magn_operation.id
_space_group_symop_magn_operation.xyz
1 x,y,z,+1
2 x,-y,-z,+1
3 -x,y,-z,+1
4 -x,-y,z,+1
5 -x,-y,-z,-1
6 -x,y,z,-1
7 x,-y,z,-1
8 x,y,-z,-1

loop_
_space_group_symop_magn_centering.id
_space_group_symop_magn_centering.xyz
1 x,y,z,+1
2 x+1/2,y+1/2,z,+1

loop_
_atom_site_label
_atom_site_type_symbol
_atom_site_fract_x
_atom_site_fract_y
_atom_site_fract_z
_atom_site_occupancy
Sr1 Sr 0.50000 0.00000 0.50000 1.
Sr2 Sr 0.00000 0.00000 0.50000 1.
Sr3 Sr 0.25667 0.00000 0.00000 1.
Fe1 Fe 0.00000 0.74845 0.00000 1.
Fe2 Fe 0.25000 0.25000 0.50000 0.9
Co1 Co 0.25000 0.25000 0.50000 0.1
O1 O 0.50000 0.00000 0.00000 1.
O2 O 0.26468 0.00000 0.50000 1.
O3 O 0.37932 0.27147 0.24950 1.

loop_
_atom_site_moment.label
_atom_site_moment.crystalaxis_x
_atom_site_moment.crystalaxis_y
_atom_site_moment.crystalaxis_z
_atom_site_moment.symmform
Fe1 0.00000 2.99(5) 0.00000 0,my,0
Fe2 0.00000 0.00000 0.00000 0,0,0
Co1 0.00000 0.00000 0.00000 0,0,0

