#\#CIF_2.0
# Created by the Bilbao Crystallographic Server
# http://www.cryst.ehu.es
# Date: 11/05/2020

data_5yOhtAoR
_audit_creation_date            2020-05-11
_audit_creation_method          "Bilbao Crystallographic Server"

_citation_journal_abbrev        "PHYSICAL REVIEW B"
_citation_journal_volume        101
_citation_page_first            ?
_citation_page_last             ?
_citation_article_id            094418
_citation_year                  2020
_citation_DOI                   10.1103/PhysRevB.101.094418

loop_
_citation_author_name
"F. Damay"
"J. Sottmann"
"F. Laine"
"L. Chaix"
"M. Poienar"
"P. Beran"
"E. Elkaim"
"F. Fauth"
"L. Nataf"
"A. Guesdon"
"A. Maignan"
"C. Martin"



_atomic_positions_source_database_code_ICSD  .
_atomic_positions_source_other               .

_transition_temperature  100
_experiment_temperature  2

loop_
_irrep_id
_irrep_dimension
_irrep_small_dimension
_irrep_direction_type
_irrep_action
_irrep_modes_number
_irrep_presence
mGM1+  1  1  .  primary  4  .

_exptl_crystal_magnetic_properties_details
;
NPD
Position structure from a determination at 300K
Moments in the shared Fe/Mn sites are assigned to the Fe positions
See #2.43 and #1.391 for the magnetic structures of a related material from the same reference
;

_active_magnetic_irreps_details
;
1k magnetic structure
k-maximal magnetic symmetry (8 possible)
1-dim irrep as primary.
Ferroelectricity and linear magnetoelectric effects are symmetry forbidden
;

_parent_space_group.name_H-M_alt  'P b a m'
_parent_space_group.IT_number                       55
_parent_space_group.transform_Pp_abc  'a,b,c;0,0,0'

loop_
_parent_propagation_vector.id
_parent_propagation_vector.kxkykz
k1 [0 0 0]

_parent_space_group.child_transform_Pp_abc  'a,b,c;0,0,0'
_space_group_magn.transform_BNS_Pp_abc  'a,b,c;0,0,0'



_space_group_magn.number_BNS  55.353
_space_group_magn.name_BNS  "P b a m"
_cell_length_a             9.54570
_cell_length_b             12.48850
_cell_length_c             3.10370
_cell_angle_alpha          90.00
_cell_angle_beta           90.00
_cell_angle_gamma          90.00

loop_
_space_group_symop_magn_operation.id
_space_group_symop_magn_operation.xyz
1 x,y,z,+1
2 x+1/2,-y+1/2,-z,+1
3 -x+1/2,y+1/2,-z,+1
4 -x,-y,z,+1
5 -x,-y,-z,+1
6 -x+1/2,y+1/2,z,+1
7 x+1/2,-y+1/2,z,+1
8 x,y,-z,+1

loop_
_space_group_symop_magn_centering.id
_space_group_symop_magn_centering.xyz
1 x,y,z,+1

loop_
_atom_site_label
_atom_site_type_symbol
_atom_site_fract_x
_atom_site_fract_y
_atom_site_fract_z
_atom_site_occupancy
Fe1 Fe 0.00000 0.00000 0.00000 0.28
Fe2 Fe 0.50000 0.00000 0.50000 0.68
Fe3 Fe 0.00040 0.27610 0.00000 0.25
Fe4 Fe 0.73890 0.38510 0.50000 0.78
Mn1 Mn 0.00000 0.00000 0.00000 0.72
Mn2 Mn 0.50000 0.00000 0.50000 0.32
Mn3 Mn 0.00040 0.27610 0.00000 0.75
Mn4 Mn 0.73890 0.38510 0.50000 0.22
B1 B 0.27000 0.36200 0.50000 1.
O1 O 0.84400 0.04400 0.50000 1.
O2 O 0.38600 0.07500 0.00000 1.
O3 O 0.62500 0.13900 0.50000 1.
O4 O 0.11200 0.14200 0.00000 1.
O5 O 0.84100 0.23600 0.50000 1.

loop_
_atom_site_moment.label
_atom_site_moment.crystalaxis_x
_atom_site_moment.crystalaxis_y
_atom_site_moment.crystalaxis_z
_atom_site_moment.symmform
Fe1 0.00000 0.00000 1.7(1) 0,0,mz
Fe2 0.00000 0.00000 2.7(1) 0,0,mz
Fe3 0.00000 0.00000 2.5(1) 0,0,mz
Fe4 0.00000 0.00000 2.7(1) 0,0,mz

