#\#CIF_2.0
# Created by the Bilbao Crystallographic Server
# http://www.cryst.ehu.es
# Date: 11/19/2017 16:50:18
# Database entry: 0.47 Gd2Sn2O7
# Cif-like file for the case 0.47


data_5yOhtAoR
_audit_creation_date            2017-11-19
_audit_creation_method          "Bilbao Crystallographic Server"

_chemical_name_systematic
;
;
_chemical_name_common                    ?
_chemical_formula_moiety                 ?
_chemical_formula_structural             ?
_chemical_formula_analytical             ?
_chemical_formula_iupac                  ?
_chemical_formula_sum                    'Gd2 Sn2 O7'
_chemical_formula_weight                 ?
_chemical_melting_point                  ?
_chemical_compound_source                ?
_chemical_absolute_configuration         .


_citation_journal_abbrev        "J. Phys.: Condens. Matter"
_citation_journal_volume        18
_citation_page_first            L37
_citation_page_last             L42
_citation_article_id            .
_citation_year                  2006
_citation_DOI                   10.1088/0953-8984/18/3/l02

loop_
_citation_author_name
"A.S. Wills"
"M.E. Zhitomirsky"
"B. Canals"
"J.P. Sanchez"
"P. Bonville"
"P.D. de Reotier"
"A. Yaouanc"






_atomic_positions_source_database_code_ICSD   84753
_atomic_positions_source_other               .

_transition_temperature     1
_experiment_temperature     0.1

loop_
_irrep_id
_irrep_dimension
_irrep_small_dimension
_irrep_direction_type
_irrep_action
_irrep_modes_number
_irrep_presence
mGM5+ 3 3 special primary . .

_exptl_crystal_magnetic_properties_details
;
NPD
pyrochlore
modulus of the magnetic moment 6(1) muB
components of the magnetic moments only rough values to yield the reported modulus approx.
;

_active_magnetic_irreps_details
;
1k magnetic structure
k-maximal magnetic symmetry
;

_parent_space_group.name_H-M_alt  'F  d  -3m'
_parent_space_group.IT_number                       227
_parent_space_group.transform_Pp_abc  'a,b,c;0,0,0'

loop_
_parent_propagation_vector.id
_parent_propagation_vector.kxkykz
k1 [0 0 0]

_parent_space_group.child_transform_Pp_abc  'a,b,c;0,0,0'
_space_group_magn.transform_BNS_Pp_abc  '1/2a-1/2b,1/2a+1/2b,c;1/4,1/4,0'


_space_group_magn.number_BNS  141.555
_space_group_magn.name_BNS  "I  4_1'/a  m  d'  "
_space_group_magn.point_group_name  "4'/mm'm"
_space_group_magn.point_group_number  "15.4.56"
_cell_length_a                 10.45440
_cell_length_b                 10.45440
_cell_length_c                 10.45440
_cell_angle_alpha              90.00
_cell_angle_beta               90.00
_cell_angle_gamma              90.00

loop_
_space_group_symop_magn_operation.id
_space_group_symop_magn_operation.xyz
1 x,y,z,+1
2 y+1/4,x+3/4,-z+1/2,+1
3 -y,-x+1/2,-z+1/2,+1
4 -x+1/4,-y+1/4,z,+1
5 -x+1/2,-y,-z+1/2,+1
6 -y+1/4,-x+1/4,z,+1
7 y,x,z,+1
8 x+3/4,y+1/4,-z+1/2,+1
9 -y,x+1/4,z+1/4,-1
10 y+1/4,-x,z+1/4,-1
11 -x+3/4,y+1/2,-z+1/4,-1
12 x,-y+1/4,-z+1/4,-1
13 y+1/2,-x+3/4,-z+1/4,-1
14 -y+1/4,x,-z+1/4,-1
15 x+3/4,-y+1/2,z+1/4,-1
16 -x+1/2,y+3/4,z+1/4,-1

loop_
_space_group_symop_magn_centering.id
_space_group_symop_magn_centering.xyz
1 x,y,z,+1
2 x,y+1/2,z+1/2,+1
3 x+1/2,y,z+1/2,+1
4 x+1/2,y+1/2,z,+1

loop_
_atom_site_label
_atom_site_type_symbol
_atom_site_fract_x
_atom_site_fract_y
_atom_site_fract_z
_atom_site_occupancy
Gd1 Gd 0.50000 0.50000 0.50000 1
Sn1 Sn 0.00000 0.00000 0.00000 1
O1_1 O 0.33480 0.12500 0.12500 1
O1_2 O 0.12500 0.12500 0.33480 1
O2 O 0.37500 0.37500 0.37500 1

loop_
_atom_site_moment.label
_atom_site_moment.crystalaxis_x
_atom_site_moment.crystalaxis_y
_atom_site_moment.crystalaxis_z
_atom_site_moment.symmform
Gd1 4.3 -4.3 0.0 mx,-mx,0

