#\#CIF_2.0
# Created by the Bilbao Crystallographic Server
# http://www.cryst.ehu.es
# Date: 03/05/2021 

data_5yOhtAoR
_audit_creation_date            2021-05-03
_audit_creation_method          "Bilbao Crystallographic Server"

_citation_journal_abbrev        "Solid State Communications"
_citation_journal_volume        10
_citation_page_first            685
_citation_page_last             689
_citation_article_id            .
_citation_year                  1972
_citation_DOI                   10.1016/0038-1098(72)90586-8

loop_
_citation_author_name
"R. Chamard-Bois"
"N. Nhung"
"J. Yakinthos"
"M. Wintenberger"

_atomic_positions_source_database_code_ICSD  104445
_atomic_positions_source_other               .

_temperature_position_structure         .
_temperature_atom_positions             .              
_temperature_non-magn_atom_positions    .
_temperature_cell_parameters            293

_transition_temperature  3.2
_experiment_temperature  1.2

loop_
_irrep_id
_irrep_dimension
_irrep_small_dimension
_irrep_direction_type
_irrep_action
_irrep_modes_number
_irrep_presence
mX5+  6  2  special  primary  1  .

_exptl_crystal_magnetic_properties_details
;
NPD
Cell parameters determined at room temperature
;

_active_magnetic_irreps_details
;
3k magnetic structure
k-maximal symmetry
6-irrep along a special direction as primary
The star of the active irrep has three k-vectors. This is a 3k model involving the three propagation vectors. 
A 2k model is also proposed as a possible alternative structure, fitting equally well the data (see #2.71). 
An alternative 1k model is discarded in favor of these two multi-k models.
;

_parent_space_group.name_H-M_alt  'P m -3 m'
_parent_space_group.IT_number                       221
_parent_space_group.transform_Pp_abc  'a,b,c;0,0,0'

loop_
_parent_propagation_vector.id
_parent_propagation_vector.kxkykz
k1 [0 0 1/2]
k2 [0 1/2 0]
k3 [1/2 0 0]

_parent_space_group.child_transform_Pp_abc  '2a,2b,2c;0,0,0'
_space_group_magn.transform_BNS_Pp_abc  'b,-a,c;0,1/2,0'

_space_group_magn.number_BNS  205.36
_space_group_magn.name_BNS  "P_I a -3"
_cell_length_a             6.75400
_cell_length_b             6.75400
_cell_length_c             6.75400
_cell_angle_alpha          90.00
_cell_angle_beta           90.00
_cell_angle_gamma          90.00

loop_
_space_group_symop_magn_operation.id
_space_group_symop_magn_operation.xyz
1 x,y,z,+1 
2 -x+1/2,y+1/2,-z,+1 
3 x+1/2,-y,-z+1/2,+1 
4 -x,-y+1/2,z+1/2,+1 
5 -y+1/2,z+1/2,-x,+1 
6 -z,-x+1/2,y+1/2,+1 
7 -z+1/2,x+1/2,-y,+1 
8 y+1/2,-z,-x+1/2,+1 
9 z,x,y,+1 
10 y,z,x,+1 
11 z+1/2,-x,-y+1/2,+1 
12 -y,-z+1/2,x+1/2,+1 
13 -x,-y,-z,+1 
14 x+1/2,-y+1/2,z,+1 
15 -x+1/2,y,z+1/2,+1 
16 x,y+1/2,-z+1/2,+1 
17 y+1/2,-z+1/2,x,+1 
18 z,x+1/2,-y+1/2,+1 
19 z+1/2,-x+1/2,y,+1 
20 -y+1/2,z,x+1/2,+1 
21 -z,-x,-y,+1 
22 -y,-z,-x,+1 
23 -z+1/2,x,y+1/2,+1 
24 y,z+1/2,-x+1/2,+1 

loop_
_space_group_symop_magn_centering.id
_space_group_symop_magn_centering.xyz
1 x,y,z,+1 
2 x+1/2,y+1/2,z+1/2,-1 

loop_
_atom_site_label
_atom_site_type_symbol
_atom_site_fract_x
_atom_site_fract_y
_atom_site_fract_z
Ho1 Ho 0.00000 0.00000 0.00000
Rh1 Rh 0.25000 0.25000 0.25000

loop_
_atom_site_moment.label
_atom_site_moment.crystalaxis_x
_atom_site_moment.crystalaxis_y
_atom_site_moment.crystalaxis_z
_atom_site_moment.symmform
_atom_site_moment.magnitude
Ho1 3.0 3.0 3.0 mx,mx,mx  5.2(3)

