#\#CIF_2.0
# Created by the Bilbao Crystallographic Server
# http://www.cryst.ehu.es
# Date: 26/03/2021 

data_5yOhtAoR
_audit_creation_date            2021-03-26
_audit_creation_method          "Bilbao Crystallographic Server"

_citation_journal_abbrev        "phys. stat. sol. (a)"
_citation_journal_volume        25
_citation_page_first            K77
_citation_page_last             K80
_citation_article_id            .
_citation_year                  1974
_citation_DOI                   10.1002/pssa.2210250155

loop_
_citation_author_name
"A. Zygmunt"
"S. Ligenza"
"H. Ptasiewicz"
"J. Leciejewicz"

_atomic_positions_source_database_code_ICSD  42170
_atomic_positions_source_other               .

_transition_temperature  125(3)
_experiment_temperature  4

loop_
_irrep_id
_irrep_dimension
_irrep_small_dimension
_irrep_direction_type
_irrep_action
_irrep_modes_number
_irrep_presence
mGM3+ 1  1  .  primary  1  .

_exptl_crystal_magnetic_properties_details
;
NPD
Position structure from a measurement at 300K
Ferromagnet
;

_active_magnetic_irreps_details
;
1k magnetic structure
k-maximal magnetic symmetry
1-dim irrep as primary
;

_parent_space_group.name_H-M_alt  'P 4/n m m'
_parent_space_group.IT_number                       129
_parent_space_group.transform_Pp_abc  'a,b,c;0,0,0'

loop_
_parent_propagation_vector.id
_parent_propagation_vector.kxkykz
k1 [0 0 0]

_parent_space_group.child_transform_Pp_abc  'a,b,c;0,0,0'
_space_group_magn.transform_BNS_Pp_abc  'a,b,c;0,0,0'



_space_group_magn.number_BNS  129.417
_space_group_magn.name_BNS   "P 4/n m' m'"
_cell_length_a             3.88400
_cell_length_b             3.88400
_cell_length_c             8.17600
_cell_angle_alpha          90.00
_cell_angle_beta           90.00
_cell_angle_gamma          90.00

loop_
_space_group_symop_magn_operation.id
_space_group_symop_magn_operation.xyz
1 x,y,z,+1 
2 -y+1/2,x,z,+1 
3 y,-x+1/2,z,+1 
4 -x+1/2,-y+1/2,z,+1 
5 -x,-y,-z,+1 
6 y+1/2,-x,-z,+1 
7 -y,x+1/2,-z,+1 
8 x+1/2,y+1/2,-z,+1 
9 x+1/2,-y,-z,-1 
10 -x,y+1/2,-z,-1 
11 y+1/2,x+1/2,-z,-1 
12 -y,-x,-z,-1 
13 -x+1/2,y,z,-1 
14 x,-y+1/2,z,-1 
15 -y+1/2,-x+1/2,z,-1 
16 y,x,z,-1 

loop_
_space_group_symop_magn_centering.id
_space_group_symop_magn_centering.xyz
1 x,y,z,+1 

loop_
_atom_site_label
_atom_site_type_symbol
_atom_site_fract_x
_atom_site_fract_y
_atom_site_fract_z
U1 U 0.25000 0.25000 0.28390
S1 S 0.25000 0.25000 0.63140
As1 As 0.75000 0.25000 0.00000

loop_
_atom_site_moment.label
_atom_site_moment.crystalaxis_x
_atom_site_moment.crystalaxis_y
_atom_site_moment.crystalaxis_z
_atom_site_moment.symmform
_atom_site_moment.magnitude
U1 0.00000 0.00000 1.24(10) 0,0,mz  1.24(10)



