#\#CIF_2.0
# Created by the Bilbao Crystallographic Server
# http://www.cryst.ehu.es
# Date: 02/03/2021 

data_5yOhtAoR
_audit_creation_date            2021-03-02
_audit_creation_method          "Bilbao Crystallographic Server"

_citation_journal_abbrev        "Solid State Communications"
_citation_journal_volume        45
_citation_page_first            145
_citation_page_last             148
_citation_article_id            .
_citation_year                  1983
_citation_DOI                   10.1016/0038-1098(83)90363-0

loop_
_citation_author_name
"J. Leciejewicz"
"M. Kolenda"
"A. Szytula"

_atomic_positions_source_database_code_ICSD  31427
_atomic_positions_source_other               .

_transition_temperature  11
_experiment_temperature  4.2

loop_
_irrep_id
_irrep_dimension
_irrep_small_dimension
_irrep_direction_type
_irrep_action
_irrep_modes_number
_irrep_presence
mM5+  2  2  special  primary  1  .

_exptl_crystal_magnetic_properties_details
;
NPD
Direction of the moment component on the ab plane undetermined. Here a direction of maximal symmetry is chosen.
See #1.515 for a different model of this structure with a lower MSG, two irreps involved, and a much smaller moment magnitude.
;

_active_magnetic_irreps_details
;
1k magnetic structure
k-maximal magnetic symmetry
2-dim irrep along a special direction as primary
;

_parent_space_group.name_H-M_alt  'I 4/m m m'
_parent_space_group.IT_number                       139
_parent_space_group.transform_Pp_abc  'a,b,c;0,0,0'

loop_
_parent_propagation_vector.id
_parent_propagation_vector.kxkykz
k1 [1 1 1]

_parent_space_group.child_transform_Pp_abc  'a,b,c;0,0,0'
_space_group_magn.transform_BNS_Pp_abc  'b,c,a;0,0,0'



_space_group_magn.number_BNS  58.404
_space_group_magn.name_BNS  "P_I n n m"
_cell_length_a             3.89200
_cell_length_b             3.89200
_cell_length_c             9.77900
_cell_angle_alpha          90.00
_cell_angle_beta           90.00
_cell_angle_gamma          90.00

loop_
_space_group_symop_magn_operation.id
_space_group_symop_magn_operation.xyz
1 x,y,z,+1 
2 -x+1/2,y+1/2,-z+1/2,+1 
3 -x+1/2,-y+1/2,z+1/2,+1 
4 x,-y,-z,+1 
5 -x,-y,-z,+1 
6 x+1/2,-y+1/2,z+1/2,+1 
7 x+1/2,y+1/2,-z+1/2,+1 
8 -x,y,z,+1 

loop_
_space_group_symop_magn_centering.id
_space_group_symop_magn_centering.xyz
1 x,y,z,+1 
2 x+1/2,y+1/2,z+1/2,-1 

loop_
_atom_site_label
_atom_site_type_symbol
_atom_site_fract_x
_atom_site_fract_y
_atom_site_fract_z
Er1 Er 0.00000 0.00000 0.00000
Co1 Co 0.00000 0.50000 0.25000
Si1 Si 0.00000 0.00000 0.38960

loop_
_atom_site_moment.label
_atom_site_moment.crystalaxis_x
_atom_site_moment.crystalaxis_y
_atom_site_moment.crystalaxis_z
_atom_site_moment.symmform
_atom_site_moment.magnitude
Er1 8.7(2) 0.00000 0.00000 mx,0,0  8.7(2)

