#\#CIF_2.0
# Created by the Bilbao Crystallographic Server
# http://www.cryst.ehu.es
# Date: 11/19/2017 16:54:17
# Database entry: 0.76 Cr2TeO6
# Cif-like file for the case 0.76


data_5yOhtAoR
_audit_creation_date            2017-11-19
_audit_creation_method          "Bilbao Crystallographic Server"

_chemical_name_systematic
;
;
_chemical_name_common                    ?
_chemical_formula_moiety                 ?
_chemical_formula_structural             ?
_chemical_formula_analytical             ?
_chemical_formula_iupac                  ?
_chemical_formula_sum                    'Cr2 Te O6'
_chemical_formula_weight                 ?
_chemical_melting_point                  ?
_chemical_compound_source                ?
_chemical_absolute_configuration         .


_citation_journal_abbrev        "PHYSICAL REVIEW LETTERS"
_citation_journal_volume        113
_citation_page_first            ?
_citation_page_last             ?
_citation_article_id            076406
_citation_year                  2014
_citation_DOI                   10.1103/PhysRevLett.113.076406

loop_
_citation_author_name
"M. Zhu"
"D. Do"
"C.D. Cruz"
"Z. Dun"
"H. Zhou"
"S. Mahanti"
"X. Ke"






_atomic_positions_source_database_code_ICSD   24794
_atomic_positions_source_other               .

_transition_temperature     93
_experiment_temperature     ?

loop_
_irrep_id
_irrep_dimension
_irrep_small_dimension
_irrep_direction_type
_irrep_action
_irrep_modes_number
_irrep_presence
mGM5- 2 2 special primary 2 .

_exptl_crystal_magnetic_properties_details
;
NPD
moment scale arbitrary
;

_active_magnetic_irreps_details
;
1k magnetic structure.
k-maximal magnetic structure (8 possible).
Equivalent twin-related arrangement along x.
Cr2WO6 and Cr2TeO6 have the same active irrep and the same magnetic space group, but the collinear arrangements are along orthogonal directions in the two compounds for the same twin. The models for both compounds are described along the same direction y  because they are described for different twins, with different (conjugate) magnetic space groups.
;

_parent_space_group.name_H-M_alt  'P  4_2/m  n  m'
_parent_space_group.IT_number                       136
_parent_space_group.transform_Pp_abc  'a,b,c;0,0,0'

loop_
_parent_propagation_vector.id
_parent_propagation_vector.kxkykz
k1 [0 0 0]

_parent_space_group.child_transform_Pp_abc  'a,b,c;0,0,0'
_space_group_magn.transform_BNS_Pp_abc  'a,b,c;1/2,1/2,1/2'


_space_group_magn.number_BNS  58.395
_space_group_magn.name_BNS  "P  n'  n  m"
_space_group_magn.point_group_name  "m'mm"
_space_group_magn.point_group_number  "8.3.26"
_cell_length_a                 4.54600
_cell_length_b                 4.54600
_cell_length_c                 9.01400
_cell_angle_alpha              90.00
_cell_angle_beta               90.00
_cell_angle_gamma              90.00

loop_
_space_group_symop_magn_operation.id
_space_group_symop_magn_operation.xyz
1 x,y,z,+1
2 x+1/2,-y+1/2,-z+1/2,+1
3 x+1/2,-y+1/2,z+1/2,+1
4 x,y,-z,+1
5 -x+1/2,y+1/2,-z+1/2,-1
6 -x,-y,z,-1
7 -x,-y,-z,-1
8 -x+1/2,y+1/2,z+1/2,-1

loop_
_space_group_symop_magn_centering.id
_space_group_symop_magn_centering.xyz
1 x,y,z,+1

loop_
_atom_site_label
_atom_site_type_symbol
_atom_site_fract_x
_atom_site_fract_y
_atom_site_fract_z
_atom_site_occupancy
Cr1 Cr 0.00000 0.00000 0.33450 1
Te1 Te 0.00000 0.00000 0.00000 1
O1 O 0.30100 0.30100 0.00000 1
O2 O 0.31000 0.31000 0.33700 1

loop_
_atom_site_moment.label
_atom_site_moment.crystalaxis_x
_atom_site_moment.crystalaxis_y
_atom_site_moment.crystalaxis_z
_atom_site_moment.symmform
Cr1 0.0 1. 0.0 mx,my,0

