#\#CIF_2.0
# Created by the Bilbao Crystallographic Server
# http://www.cryst.ehu.es
# Date: 19/11/2020

data_5yOhtAoR
_audit_creation_date            2020-11-19
_audit_creation_method          "Bilbao Crystallographic Server"

_citation_journal_abbrev        "Journal of Alloys and Compounds"
_citation_journal_volume        731
_citation_page_first            397
_citation_page_last             402
_citation_article_id            ?
_citation_year                  2018
_citation_DOI                   10.1016/j.jallcom.2017.10.050

loop_
_citation_author_name
"E. Gerasimov"
"N. Mushnikov"
"P. Terentev"
"A. Pirogov"



_atomic_positions_source_database_code_ICSD  82939
_atomic_positions_source_other               .

_transition_temperature  ?
_experiment_temperature  4.2

loop_
_irrep_id
_irrep_dimension
_irrep_small_dimension
_irrep_direction_type
_irrep_action
_irrep_modes_number
_irrep_presence
mGM3+  1  1  .  primary  2  .
mGM5-  2  2  special primary 1 .

_exptl_crystal_magnetic_properties_details
;
NPD
Transition temperature unkonwn
Position structure (not reported in the paper) retrieved from ICSD from another study at 10K.
An orientation of the structure different from the one in the paper, but domain-equivalent, is used here.
;

_active_magnetic_irreps_details
;
1k magnetic structure
k-maximal magnetic symmetry
2-dim irreps involved as primary: two order parameters present in the sense of Landau theory
FM along c
;

_parent_space_group.name_H-M_alt  'I 4/m m m'
_parent_space_group.IT_number                       139
_parent_space_group.transform_Pp_abc  'a,b,c;0,0,0'

loop_
_parent_propagation_vector.id
_parent_propagation_vector.kxkykz
k1 [0 0 0]

_parent_space_group.child_transform_Pp_abc  'a,b,c;0,0,0'
_space_group_magn.transform_BNS_Pp_abc  'a,-c,b;0,0,0'



_space_group_magn.number_BNS  44.231
_space_group_magn.name_BNS  "I m' m 2'"
_cell_length_a             4.09848
_cell_length_b             4.09848
_cell_length_c             10.56325
_cell_angle_alpha          90.00
_cell_angle_beta           90.00
_cell_angle_gamma          90.00

loop_
_space_group_symop_magn_operation.id
_space_group_symop_magn_operation.xyz
1 x,y,z,+1
2 x,y,-z,+1
3 -x,y,-z,-1
4 -x,y,z,-1

loop_
_space_group_symop_magn_centering.id
_space_group_symop_magn_centering.xyz
1 x,y,z,+1
2 x+1/2,y+1/2,z+1/2,+1

loop_
_atom_site_label
_atom_site_type_symbol
_atom_site_fract_x
_atom_site_fract_y
_atom_site_fract_z
La1 La 0.00000 0.00000 0.00000
Mn1 Mn 0.00000 0.50000 0.25000
Si1 Si 0.00000 0.00000 0.38010

loop_
_atom_site_moment.label
_atom_site_moment.crystalaxis_x
_atom_site_moment.crystalaxis_y
_atom_site_moment.crystalaxis_z
_atom_site_moment.symmform
_atom_site_moment.magnitude
Mn1 0.00000 -2.06(2) 1.81(3) 0,my,mz  2.74(3)

