#\#CIF_2.0
# Created by the Bilbao Crystallographic Server
# http://www.cryst.ehu.es
# Date: 11/19/2017 17:06:57
# Database entry: 1.29 LaSrFeO4
# Cif-like file for the case 1.29


data_5yOhtAoR
_audit_creation_date            2017-11-19
_audit_creation_method          "Bilbao Crystallographic Server"

_chemical_name_systematic
;
;
_chemical_name_common                    ?
_chemical_formula_moiety                 ?
_chemical_formula_structural             ?
_chemical_formula_analytical             ?
_chemical_formula_iupac                  ?
_chemical_formula_sum                    'La Sr Fe O4'
_chemical_formula_weight                 ?
_chemical_melting_point                  ?
_chemical_compound_source                ?
_chemical_absolute_configuration         .


_citation_journal_abbrev        "PHYSICAL REVIEW B"
_citation_journal_volume        87
_citation_page_first            ?
_citation_page_last             ?
_citation_article_id            054433
_citation_year                  2013
_citation_DOI                   10.1103/physrevb.87.054433

loop_
_citation_author_name
"N. Qureshi"
"H. Ulbrich"
"Y. Sidis"
"A. Cousson"
"M. Braden"





_atomic_positions_source_database_code_ICSD   180512
_atomic_positions_source_other               .

_transition_temperature     380
_experiment_temperature     50

loop_
_irrep_id
_irrep_dimension
_irrep_small_dimension
_irrep_direction_type
_irrep_action
_irrep_modes_number
_irrep_presence
mX3+ 2 1 . primary . .

_exptl_crystal_magnetic_properties_details
;
NPD
modulus magnetic moment Fe1: 5.38(1)
the refinement left the direction of the magnetic moment free within the plane xy, but the refined angle is within the error along the direction forced by the k-maximal symmetry.
;

_active_magnetic_irreps_details
;
1k magnetic structure
k-maximal magnetic symmetry (3 possible)
;

_parent_space_group.name_H-M_alt  'I  4/m  m  m'
_parent_space_group.IT_number                       139
_parent_space_group.transform_Pp_abc  'a,b,c;0,0,0'

loop_
_parent_propagation_vector.id
_parent_propagation_vector.kxkykz
k1 [1/2 1/2 0]

_parent_space_group.child_transform_Pp_abc  '2a,2b,c;0,0,0'
_space_group_magn.transform_BNS_Pp_abc  '1/2a-1/2b,-c,1/2a+1/2b;0,0,0'


_space_group_magn.number_BNS  64.480
_space_group_magn.name_BNS  "C_A  m  c  a"
_space_group_magn.point_group_name  "mmm1'"
_space_group_magn.point_group_number  "8.2.25"
_cell_length_a                 7.73880
_cell_length_b                 7.73880
_cell_length_c                 12.73220
_cell_angle_alpha              90.00
_cell_angle_beta               90.00
_cell_angle_gamma              90.00

loop_
_space_group_symop_magn_operation.id
_space_group_symop_magn_operation.xyz
1 x,y,z,+1
2 -y,-x,-z,+1
3 -x+1/2,-y,z,+1
4 y+1/2,x,-z,+1
5 -x,-y,-z,+1
6 y,x,z,+1
7 x+1/2,y,-z,+1
8 -y+1/2,-x,z,+1

loop_
_space_group_symop_magn_centering.id
_space_group_symop_magn_centering.xyz
1 x,y,z,+1
2 x+1/4,y+3/4,z+1/2,+1
3 x+1/2,y+1/2,z,+1
4 x+3/4,y+1/4,z+1/2,+1
5 x+1/4,y+1/4,z+1/2,-1
6 x+1/2,y,z,-1
7 x,y+1/2,z,-1
8 x+3/4,y+3/4,z+1/2,-1

loop_
_atom_site_label
_atom_site_type_symbol
_atom_site_fract_x
_atom_site_fract_y
_atom_site_fract_z
_atom_site_occupancy
La1 La 0.00000 0.00000 0.35805 0.5
Sr1 Sr 0.00000 0.00000 0.35805 0.5
Fe1 Fe 0.00000 0.00000 0.00000 1.0
O1 O 0.00000 0.25000 0.00000 1.0
O2 O 0.00000 0.00000 0.17037 1.0

loop_
_atom_site_moment.label
_atom_site_moment.crystalaxis_x
_atom_site_moment.crystalaxis_y
_atom_site_moment.crystalaxis_z
_atom_site_moment.symmform
Fe1 3.8 -3.8 0.0 mx,-mx,0

