#\#CIF_2.0
# Created by the Bilbao Crystallographic Server
# http://www.cryst.ehu.es
# Date: 12/04/2021 

data_5yOhtAoR
_audit_creation_date            2021-04-12
_audit_creation_method          "Bilbao Crystallographic Server"

_citation_journal_abbrev        "JOURNAL OF SOLID STATE CHEMISTRY"
_citation_journal_volume        70
_citation_page_first            262
_citation_page_last             270
_citation_article_id            .
_citation_year                  1987
_citation_DOI                   10.1016/0022-4596(87)90065-X

loop_
_citation_author_name
"W. Bronger"
"A. Kyas"
"P. Muller"

_atomic_positions_source_database_code_ICSD  202385
_atomic_positions_source_other               .

_transition_temperature  188
_experiment_temperature  11

loop_
_irrep_id
_irrep_dimension
_irrep_small_dimension
_irrep_direction_type
_irrep_action
_irrep_modes_number
_irrep_presence
mGM2- 1  1  .  primary  2  .

_exptl_crystal_magnetic_properties_details
;
NPD
;

_active_magnetic_irreps_details
;
1k magnetic structure
k-maximal magnetic symmetry
1-dim irrep as primary
;

_parent_space_group.name_H-M_alt  'C 2/c'
_parent_space_group.IT_number                       15
_parent_space_group.transform_Pp_abc  'a,b,c;0,0,0'

loop_
_parent_propagation_vector.id
_parent_propagation_vector.kxkykz
k1 [0 0 0]

_parent_space_group.child_transform_Pp_abc  'a,b,c;0,0,0'
_space_group_magn.transform_BNS_Pp_abc  'a,b,c;0,0,0'



_space_group_magn.number_BNS  15.87
_space_group_magn.name_BNS  "C 2'/c"
_cell_length_a             7.18900
_cell_length_b             11.61900
_cell_length_c             5.43500
_cell_angle_alpha          90.00
_cell_angle_beta           112.20
_cell_angle_gamma          90.00

loop_
_space_group_symop_magn_operation.id
_space_group_symop_magn_operation.xyz
1 x,y,z,+1 
2 x,-y,z+1/2,+1 
3 -x,y,-z+1/2,-1 
4 -x,-y,-z,-1 

loop_
_space_group_symop_magn_centering.id
_space_group_symop_magn_centering.xyz
1 x,y,z,+1 
2 x+1/2,y+1/2,z,+1 

loop_
_atom_site_label
_atom_site_type_symbol
_atom_site_fract_x
_atom_site_fract_y
_atom_site_fract_z
Fe1 Fe 0.00000 0.00000 0.25000
Rb1 Rb 0.00000 0.35400 0.25000
S1 S 0.18900 0.11000 0.07000

loop_
_atom_site_moment.label
_atom_site_moment.crystalaxis_x
_atom_site_moment.crystalaxis_y
_atom_site_moment.crystalaxis_z
_atom_site_moment.symmform
_atom_site_moment.magnitude
Fe1 0.6(4) 0.00000 -1.4(6) mx,0,mz  1.9(3)

