#\#CIF_2.0
# Created by the Bilbao Crystallographic Server
# http://www.cryst.ehu.es
# Date: 22/05/2021 

data_5yOhtAoR
_audit_creation_date            2021-05-22
_audit_creation_method          "Bilbao Crystallographic Server"

_citation_journal_abbrev        "Journal of the Less-Common Metals"
_citation_journal_volume        175
_citation_page_first            143
_citation_page_last             154
_citation_article_id            .
_citation_year                  1991
_citation_DOI                   10.1016/0022-5088(91)90359-C

loop_
_citation_author_name
"B. Chafik"
"E. Idrissi"
"G. Venturini"
"B. Malaman"
"D. Fruchart"

_atomic_positions_source_database_code_ICSD  54277
_atomic_positions_source_other               .

_transition_temperature  423
_experiment_temperature  300

loop_
_irrep_id
_irrep_dimension
_irrep_small_dimension
_irrep_direction_type
_irrep_action
_irrep_modes_number
_irrep_presence
mGM2+  1  1  .  primary  2  .
mGM6+  2  2  special primary 3 .
mGM3+  1  1  .  secondary 1  no
mGM5+  2  2  special secondary 1 no

_exptl_crystal_magnetic_properties_details
;
NPD
Angle of the spins direction with the c axis: 15(2) degrees
The direction of the spin on the basal ab plane is undetermined. Here a direction of maximal symmetry has been taken arbitrarily.
At lower temperatures, at some unspecified temperature, between 300K and 250K, a transition takes place with the spins aligning along the c direction (see #0.700 and #0.701).
FM on the ac plane. Ferrimagnetic
;

_active_magnetic_irreps_details
;
1k magnetic structure
Two irreps as primary. This means that two order parameters in the sense of Landau theory are present.
Two secondary irreps allowed by the MSG, but not present in the model, add two additional degrees of freedom to the spin arrangement. 
;

_parent_space_group.name_H-M_alt  'P 6/m m m'
_parent_space_group.IT_number                       191
_parent_space_group.transform_Pp_abc  'a,b,c;0,0,0'

loop_
_parent_propagation_vector.id
_parent_propagation_vector.kxkykz
k1 [0 0 0]

_parent_space_group.child_transform_Pp_abc  'a,b,c;0,0,0'
_space_group_magn.transform_BNS_Pp_abc  'a,a+2b,c;0,0,0'

_space_group_magn.number_BNS  12.62
_space_group_magn.name_BNS  "C 2'/m'"
_cell_length_a             5.53000
_cell_length_b             5.53000
_cell_length_c             9.02300
_cell_angle_alpha          90.00
_cell_angle_beta           90.00
_cell_angle_gamma          120.00

loop_
_space_group_symop_magn_operation.id
_space_group_symop_magn_operation.xyz
1 x,y,z,+1 
2 -x,-y,-z,+1 
3 -x+y,y,-z,-1 
4 x-y,-y,z,-1 

loop_
_space_group_symop_magn_centering.id
_space_group_symop_magn_centering.xyz
1 x,y,z,+1 

loop_
_atom_site_label
_atom_site_type_symbol
_atom_site_fract_x
_atom_site_fract_y
_atom_site_fract_z
Tb1 Tb 0.00000 0.00000 0.50000
Mn1_1 Mn 0.50000 0.00000 0.25400
Mn1_2 Mn  0.00000 0.50000 0.25400
Sn1 Sn 0.33333 0.66667 0.00000
Sn2 Sn 0.33333 0.66667 0.50000
Sn3 Sn 0.00000 0.00000 0.16800

loop_
_atom_site_moment.label
_atom_site_moment.crystalaxis_x
_atom_site_moment.crystalaxis_y
_atom_site_moment.crystalaxis_z
_atom_site_moment.symmform
_atom_site_moment.magnitude
Tb1 1.28 0.00000 4.78 mx,0,mz       4.95(2)  
Mn1_1 -0.52 0.00000 -1.92 mx,0,mz   1.99(6)
Mn1_2 -0.52 0.00000 -1.92 mx,my,mz  1.99(6)

