#\#CIF_2.0
# Created by the Bilbao Crystallographic Server
# http://www.cryst.ehu.es
# Date: 11/19/2017 16:47:59
# Database entry: 0.17 FePO4
# Cif-like file for the case 0.17


data_5yOhtAoR
_audit_creation_date            2017-11-19
_audit_creation_method          "Bilbao Crystallographic Server"

_chemical_name_systematic
;
;
_chemical_name_common                    ?
_chemical_formula_moiety                 ?
_chemical_formula_structural             ?
_chemical_formula_analytical             ?
_chemical_formula_iupac                  ?
_chemical_formula_sum                    'Fe P O4'
_chemical_formula_weight                 ?
_chemical_melting_point                  ?
_chemical_compound_source                ?
_chemical_absolute_configuration         .


_citation_journal_abbrev        "Chem. Mater."
_citation_journal_volume        15
_citation_page_first            4085
_citation_page_last             ?
_citation_article_id            .
_citation_year                  2003
_citation_DOI                   10.1021/cm0300462

loop_
_citation_author_name
"G. Rousse"
"J. Rodriguez-Carvajal"
"S. Patoux"
"C. Masquelier"






_atomic_positions_source_database_code_ICSD  .
_atomic_positions_source_other               .

_transition_temperature     125
_experiment_temperature     2

loop_
_irrep_id
_irrep_dimension
_irrep_small_dimension
_irrep_direction_type
_irrep_action
_irrep_modes_number
_irrep_presence
mGM1- 1 1 . primary ? ?
mGM1+ 1 1 . primary ? ?

_exptl_crystal_magnetic_properties_details
;
NPD
;

_active_magnetic_irreps_details
;
1k magnetic structure
two 1-dim irreps active as primary
mGM1- : Pn'm'a'
mGM1+ : Pnma
mGM1- : Fe1 (mx, 0, mz)
mGM1+ : Fe1 (0, my, 0)
;

_parent_space_group.name_H-M_alt  'P  n  m  a'
_parent_space_group.IT_number                       62
_parent_space_group.transform_Pp_abc  'a,b,c;0,0,0'

loop_
_parent_propagation_vector.id
_parent_propagation_vector.kxkykz
k1 [0 0 0]

_parent_space_group.child_transform_Pp_abc  'a,b,c;0,0,0'
_space_group_magn.transform_BNS_Pp_abc  'a,b,c;0,1/2,3/4'


_space_group_magn.number_BNS  19.25
_space_group_magn.name_BNS  "P  2_12_12_1"
_space_group_magn.point_group_name  "222"
_space_group_magn.point_group_number  "6.1.17"
_cell_length_a                 9.75990
_cell_length_b                 5.75190
_cell_length_c                 4.75600
_cell_angle_alpha              90.00
_cell_angle_beta               90.00
_cell_angle_gamma              90.00

loop_
_space_group_symop_magn_operation.id
_space_group_symop_magn_operation.xyz
1 x,y,z,+1
2 x+1/2,-y+1/2,-z+1/2,+1
3 -x,y+1/2,-z,+1
4 -x+1/2,-y,z+1/2,+1

loop_
_space_group_symop_magn_centering.id
_space_group_symop_magn_centering.xyz
1 x,y,z,+1

loop_
_atom_site_label
_atom_site_type_symbol
_atom_site_fract_x
_atom_site_fract_y
_atom_site_fract_z
_atom_site_occupancy
Fe1 Fe 0.27550 0.25000 0.94820 1
P1 P 0.09390 0.25000 0.39500 1
O1 O 0.12150 0.25000 0.70890 1
O2 O 0.43910 0.25000 0.15950 1
O3 O 0.16600 0.04490 0.24980 1
O3_1 O 0.83400 0.95510 0.75020 1

loop_
_atom_site_moment.label
_atom_site_moment.crystalaxis_x
_atom_site_moment.crystalaxis_y
_atom_site_moment.crystalaxis_z
_atom_site_moment.symmform
Fe1 4.06 0.9 0.0 mx,my,mz

