#\#CIF_2.0
# Created by the Bilbao Crystallographic Server
# http://www.cryst.ehu.es
# Date: 31/10/2020

data_5yOhtAoR
_audit_creation_date            2020-10-31
_audit_creation_method          "Bilbao Crystallographic Server"

_citation_journal_abbrev        "J. Phys. Soc. Japan"
_citation_journal_volume        22
_citation_page_first            1210
_citation_page_last             1213
_citation_article_id            ?
_citation_year                  1967
_citation_DOI                   10.1143/JPSJ.22.1210

loop_
_citation_author_name
"K. Yamaguchi"
"H. Watanabe"



_atomic_positions_source_database_code_ICSD  .
_atomic_positions_source_other               .

_transition_temperature  373
_experiment_temperature  77

loop_
_irrep_id
_irrep_dimension
_irrep_small_dimension
_irrep_direction_type
_irrep_action
_irrep_modes_number
_irrep_presence
mA6+  2  2  special  primary  2  .
mA3+  1  1    .      secondary 1  no

_exptl_crystal_magnetic_properties_details
;
NPD
The direction of the spin one the basal plane is undetermined. The direction along a was taken arbitrarily.
;

_active_magnetic_irreps_details
;
1k magnetic structure
2-dim irrep along a special direction as primary
secondary irrep allowed but not present
;

_parent_space_group.name_H-M_alt  'P 6/m m m'
_parent_space_group.IT_number                       191
_parent_space_group.transform_Pp_abc  'a,b,c;0,0,0'

loop_
_parent_propagation_vector.id
_parent_propagation_vector.kxkykz
k1 [0 0 1/2]

_parent_space_group.child_transform_Pp_abc  'a,b,2c;0,0,0'
_space_group_magn.transform_BNS_Pp_abc  'a,a+2b,c;0,0,0'



_space_group_magn.number_BNS  63.466
_space_group_magn.name_BNS  "C_c m c m"
_cell_length_a             5.28
_cell_length_b             5.28
_cell_length_c             8.88
_cell_angle_alpha          90.00
_cell_angle_beta           90.00
_cell_angle_gamma          120.00

loop_
_space_group_symop_magn_operation.id
_space_group_symop_magn_operation.xyz
1 x,y,z,+1
2 x-y,-y,-z,+1
3 -x+y,y,-z+1/2,+1
4 -x,-y,z+1/2,+1
5 -x,-y,-z,+1
6 -x+y,y,z,+1
7 x-y,-y,z+1/2,+1
8 x,y,-z+1/2,+1

loop_
_space_group_symop_magn_centering.id
_space_group_symop_magn_centering.xyz
1 x,y,z,+1
2 x,y,z+1/2,-1

loop_
_atom_site_label
_atom_site_type_symbol
_atom_site_fract_x
_atom_site_fract_y
_atom_site_fract_z
Fe1_1 Fe 0.50000 0.00000 0.00000
Fe1_2 Fe  0.00000 0.50000 0.00000
Sn1 Sn 0.00000 0.00000 0.00000
Sn2 Sn 0.33333 0.66667 0.25000

loop_
_atom_site_moment.label
_atom_site_moment.crystalaxis_x
_atom_site_moment.crystalaxis_y
_atom_site_moment.crystalaxis_z
_atom_site_moment.symmform
_atom_site_moment.magnitude
Fe1_1 1.5(1) 0.00000 0.00000 mx,0,0 1.5(1)
Fe1_2 1.5 0.00000 0.00000 mx,my,0   1.5


