##CIF_2.0
# Created by the Bilbao Crystallographic Server
# http://www.cryst.ehu.es
# Date: 28/02/2018 14:17:08


data_5yOhtAoR
_audit_creation_date            2018-02-28
_audit_creation_method          "Bilbao Crystallographic Server"

_citation_journal_abbrev        "Physica B"
_citation_journal_volume        215
_citation_page_first            7
_citation_page_last             21
_citation_article_id            ?
_citation_year                  1995
_citation_DOI                   10.1016/0921-4526(95)00021-Z

loop_
_citation_author_name
"Lander, G.H."
"Burlet, P"

_atomic_positions_source_database_code_ICSD  .
_atomic_positions_source_other               .

_transition_temperature  38
_experiment_temperature  ?

loop_
_irrep_id
_irrep_dimension
_irrep_small_dimension
_irrep_direction_type
_irrep_action
_irrep_modes_number
_irrep_presence
mL2+  4  1  special2  primary  1  .

_exptl_crystal_magnetic_properties_details
;
Taken from a review article
Non-significant digits included in the Np moment components to obtain the reported moment modulus: 1.3
;

_active_magnetic_irreps_details
;
4k magnetic structure
4-dim irrep active with the 4 propagation vectors of the star involved (for this irrep: 2 alternative  different possible MSGs of maximal cubic symmetry).
;

_parent_space_group.name_H-M_alt  'F  m  -3  m  '
_parent_space_group.IT_number                       225
_parent_space_group.transform_Pp_abc  'a,b,c;0,0,0'

loop_
_parent_propagation_vector.id
_parent_propagation_vector.kxkykz
k1 [1/2 1/2 1/2]
k2 [1/2 1/2 -1/2]
k3 [1/2 -1/2 1/2]
k4 [-1/2 1/2 1/2]

_parent_space_group.child_transform_Pp_abc  '2a,2b,2c;0,0,0'
_space_group_magn.transform_BNS_Pp_abc  'a,b,c;0,0,0'



_space_group_magn.number_BNS  228.139
_space_group_magn.name_BNS  "F_Sd-3c"
_cell_length_a             11.5000
_cell_length_b             11.5000
_cell_length_c             11.5000
_cell_angle_alpha          90.00
_cell_angle_beta           90.00
_cell_angle_gamma          90.00

loop_
_space_group_symop_magn_operation.id
_space_group_symop_magn_operation.xyz
1 x,y,z,+1
2 x+1/4,-z+1/2,y+1/4,+1
3 x+1/4,z+1/4,-y+1/2,+1
4 z+1/4,y+1/4,-x+1/2,+1
5 -z+1/2,y+1/4,x+1/4,+1
6 -y+1/2,x+1/4,z+1/4,+1
7 y+1/4,-x+1/2,z+1/4,+1
8 x,-y+1/4,-z+1/4,+1
9 -x+1/4,y,-z+1/4,+1
10 -x+1/4,-y+1/4,z,+1
11 y+1/4,x+1/4,-z+1/2,+1
12 -y+1/2,-x+1/2,-z+1/2,+1
13 -x+1/2,z+1/4,y+1/4,+1
14 -x+1/2,-z+1/2,-y+1/2,+1
15 z+1/4,-y+1/2,x+1/4,+1
16 -z+1/2,-y+1/2,-x+1/2,+1
17 z,x,y,+1
18 y,z,x,+1
19 -y+1/4,z,-x+1/4,+1
20 -z+1/4,-x+1/4,y,+1
21 -y+1/4,-z+1/4,x,+1
22 z,-x+1/4,-y+1/4,+1
23 y,-z+1/4,-x+1/4,+1
24 -z+1/4,x,-y+1/4,+1
25 -x,-y,-z,+1
26 -x+1/4,z+1/2,-y+1/4,+1
27 -x+1/4,-z+1/4,y+1/2,+1
28 -z+1/4,-y+1/4,x+1/2,+1
29 z+1/2,-y+1/4,-x+1/4,+1
30 y+1/2,-x+1/4,-z+1/4,+1
31 -y+1/4,x+1/2,-z+1/4,+1
32 -x,y+1/4,z+1/4,+1
33 x+1/4,-y,z+1/4,+1
34 x+1/4,y+1/4,-z,+1
35 -y+1/4,-x+1/4,z+1/2,+1
36 y+1/2,x+1/2,z+1/2,+1
37 x+1/2,-z+1/4,-y+1/4,+1
38 x+1/2,z+1/2,y+1/2,+1
39 -z+1/4,y+1/2,-x+1/4,+1
40 z+1/2,y+1/2,x+1/2,+1
41 -z,-x,-y,+1
42 -y,-z,-x,+1
43 y+1/4,-z,x+1/4,+1
44 z+1/4,x+1/4,-y,+1
45 y+1/4,z+1/4,-x,+1
46 -z,x+1/4,y+1/4,+1
47 -y,z+1/4,x+1/4,+1
48 z+1/4,-x,y+1/4,+1

loop_
_space_group_symop_magn_centering.id
_space_group_symop_magn_centering.xyz
1 x,y,z,+1
2 x,y+1/2,z+1/2,+1
3 x+1/2,y,z+1/2,+1
4 x+1/2,y+1/2,z,+1
5 x,y,z+1/2,-1
6 x,y+1/2,z,-1
7 x+1/2,y,z,-1
8 x+1/2,y+1/2,z+1/2,-1

loop_
_atom_site_label
_atom_site_type_symbol
_atom_site_fract_x
_atom_site_fract_y
_atom_site_fract_z
Np1 Np 0.00000 0.00000 0.00000
Se1 Se 0.25000 0.25000 0.25000

loop_
_atom_site_moment.label
_atom_site_moment.crystalaxis_x
_atom_site_moment.crystalaxis_y
_atom_site_moment.crystalaxis_z
_atom_site_moment.symmform
Np1 0.75 0.75 0.75 mx,mx,mx


