#\#CIF_2.0
# Created by the Bilbao Crystallographic Server
# http://www.cryst.ehu.es
# Date: 20/04/2020


data_5yOhtAoR
_audit_creation_date            2020-04-20
_audit_creation_method          "Bilbao Crystallographic Server"

_citation_journal_abbrev        "Journal of Alloys and Compounds"
_citation_journal_volume        284
_citation_page_first            42
_citation_page_last             46
_citation_article_id            ?
_citation_year                  1999
_citation_DOI                   10.1016/S0925-8388(98)00914-1

loop_
_citation_author_name
"P. Schobinger-Papamantellos"
"J. Rodriguez-Carvajal"
"I. Hagmusa"
"N. Duong"
"K. Buschow"



_atomic_positions_source_database_code_ICSD  88109
_atomic_positions_source_other               .

_transition_temperature  17
_experiment_temperature  1.5

loop_
_irrep_id
_irrep_dimension
_irrep_small_dimension
_irrep_direction_type
_irrep_action
_irrep_modes_number
_irrep_presence
mX2+ 2  1  .  primary  1  .

_exptl_crystal_magnetic_properties_details
;
NPD
;

_active_magnetic_irreps_details
;
1k magnetic structure
k-maximal magnetic symmetry (3 possible)
1-small irrep as primary
;

_parent_space_group.name_H-M_alt  'I 4/m m m'
_parent_space_group.IT_number                       139
_parent_space_group.transform_Pp_abc  'a,b,c;0,0,0'

loop_
_parent_propagation_vector.id
_parent_propagation_vector.kxkykz
k1 [1/2 1/2 0]

_parent_space_group.child_transform_Pp_abc  '2a,2b,c;0,0,0'
_space_group_magn.transform_BNS_Pp_abc  '-c,-1/2a+1/2b,1/2a+1/2b;0,0,0'



_space_group_magn.number_BNS  64.480
_space_group_magn.name_BNS  "C_A m c a"
_cell_length_a             7.89940
_cell_length_b             7.89940
_cell_length_c             10.36650
_cell_angle_alpha          90.00
_cell_angle_beta           90.00
_cell_angle_gamma          90.00

loop_
_space_group_symop_magn_operation.id
_space_group_symop_magn_operation.xyz
1 x,y,z,+1
2 -x,-y,z,+1
3 -y+1/4,-x+1/4,-z+1/2,+1
4 y+1/4,x+1/4,-z+1/2,+1
5 -x,-y,-z,+1
6 x,y,-z,+1
7 y+1/4,x+1/4,z+1/2,+1
8 -y+1/4,-x+1/4,z+1/2,+1

loop_
_space_group_symop_magn_centering.id
_space_group_symop_magn_centering.xyz
1 x,y,z,+1
2 x+1/4,y+3/4,z+1/2,+1
3 x+1/2,y+1/2,z,+1
4 x+3/4,y+1/4,z+1/2,+1
5 x,y+1/2,z,-1
6 x+1/4,y+1/4,z+1/2,-1
7 x+1/2,y,z,-1
8 x+3/4,y+3/4,z+1/2,-1

loop_
_atom_site_label
_atom_site_type_symbol
_atom_site_fract_x
_atom_site_fract_y
_atom_site_fract_z
Ho1 Ho 0.00000 0.00000 0.00000
Fe1 Fe 0.00000 0.25000 0.25000
Ge1 Ge 0.00000 0.00000 0.37880

loop_
_atom_site_moment.label
_atom_site_moment.crystalaxis_x
_atom_site_moment.crystalaxis_y
_atom_site_moment.crystalaxis_z
_atom_site_moment.symmform
Ho1 0.00000 0.00000 6.6(1) 0,0,mz

