#\#CIF_2.0
# Created by the Bilbao Crystallographic Server
# http://www.cryst.ehu.es
# Date: 11/19/2017 17:15:30
# Database entry: 1.140 PrMgPb
# Cif-like file for the case 1.140


data_5yOhtAoR
_audit_creation_date            2017-11-19
_audit_creation_method          "Bilbao Crystallographic Server"

_chemical_name_systematic
;
;
_chemical_name_common                    ?
_chemical_formula_moiety                 ?
_chemical_formula_structural             ?
_chemical_formula_analytical             ?
_chemical_formula_iupac                  ?
_chemical_formula_sum                    'Pr Mg Pb'
_chemical_formula_weight                 ?
_chemical_melting_point                  ?
_chemical_compound_source                ?
_chemical_absolute_configuration         .


_citation_journal_abbrev        "Journal of Magnetism and Magnetic Materials"
_citation_journal_volume        324
_citation_page_first            2937
_citation_page_last             2952
_citation_article_id            .
_citation_year                  2012
_citation_DOI                   10.1016/j.jmmm.2012.03.037

loop_
_citation_author_name
"Lemoine, P."

_atomic_positions_source_database_code_ICSD  .
_atomic_positions_source_other               .

_transition_temperature     14
_experiment_temperature     2

loop_
_irrep_id
_irrep_dimension
_irrep_small_dimension
_irrep_direction_type
_irrep_action
_irrep_modes_number
_irrep_presence
mM5- 2 2 special primary 1 .
mM1- 1 1 . primary 1 .

_exptl_crystal_magnetic_properties_details
;
NPD
Pr moment modulus: 1.80(3)
;

_active_magnetic_irreps_details
;
1k magnetic structure
Two irreps active, one of them 2-dim and along a special direction
;

_parent_space_group.name_H-M_alt  'I  4/m  m  m'
_parent_space_group.IT_number                       139
_parent_space_group.transform_Pp_abc  'a,b,c;0,0,0'

loop_
_parent_propagation_vector.id
_parent_propagation_vector.kxkykz
k1 [0 0 1]

_parent_space_group.child_transform_Pp_abc  'a,b,c;0,0,0'
_space_group_magn.transform_BNS_Pp_abc  'a,b,a+c;1/4,1/4,1/4'


_space_group_magn.number_BNS  13.73
_space_group_magn.name_BNS  "P_A  2/c"
_space_group_magn.point_group_name  "2/m1'"
_space_group_magn.point_group_number  "5.2.13"
_cell_length_a                 4.514(1)
_cell_length_b                 4.51400
_cell_length_c                 16.272(3)
_cell_angle_alpha              90.00
_cell_angle_beta               90.00
_cell_angle_gamma              90.00

loop_
_space_group_symop_magn_operation.id
_space_group_symop_magn_operation.xyz
1 x,y,z,+1
2 -x,y,-z,+1
3 -x+1/2,-y+1/2,-z+1/2,+1
4 x+1/2,-y+1/2,z+1/2,+1

loop_
_space_group_symop_magn_centering.id
_space_group_symop_magn_centering.xyz
1 x,y,z,+1
2 x+1/2,y+1/2,z+1/2,-1

loop_
_atom_site_label
_atom_site_type_symbol
_atom_site_fract_x
_atom_site_fract_y
_atom_site_fract_z
_atom_site_occupancy
Pr1 Pr 0.00000 0.00000 0.335(1) 1
Mg1_1 Mg 0.00000 0.50000 0.00000 1
Mg1_2 Mg 0.50000 0.00000 0.00000 1
Pb1 Pb 0.00000 0.00000 0.134(1) 1

loop_
_atom_site_moment.label
_atom_site_moment.crystalaxis_x
_atom_site_moment.crystalaxis_y
_atom_site_moment.crystalaxis_z
_atom_site_moment.symmform
Pr1 1.53 0.0 0.95 mx,0,mz

