#\#CIF_2.0
# Created by the Bilbao Crystallographic Server
# http://www.cryst.ehu.es
# Date: 10/05/2019

data_5yOhtAoR
_audit_creation_date            2019-10-05
_audit_creation_method          "Bilbao Crystallographic Server"


_citation_journal_abbrev        "PHYSICAL REVIEW B"
_citation_journal_volume        51
_citation_page_first            681
_citation_page_last             684
_citation_article_id            ?
_citation_year                  1995
_citation_DOI                   10.1103/PhysRevB.51.681

loop_
_citation_author_name
"S.K. Sinha"
"J.W. Lynn"
"T.E. Grigereit"
"Z. Hossain"
"L.C. Gupta"
"R. Nagarajan"
"C. Godart"




_atomic_positions_source_database_code_ICSD  56651
_atomic_positions_source_other               .

_transition_temperature     6.8
_experiment_temperature     2

loop_
_irrep_id
_irrep_dimension
_irrep_small_dimension
_irrep_direction_type
_irrep_action
_irrep_modes_number
_irrep_presence
mSM3(k1) 4 1 . primary 2 .
mSM3(3k1) 4 1 . secondary 2 yes
mSM3(5k1) 4 1 . secondary 2 yes


_exptl_crystal_magnetic_properties_details
;
NPD
Positional structure from a room temperature model from icsd
Spin of the Er at (1/2,1/2,1/2) in Figure 3 of the orignal reference is inconsistent with the reported the model in the text and the values of the Er spin at (0,0,0) and (1,0,0) in the Figure. We have assumed that the model in the text is the correct one.
A small first harmonic spin modulation is present in Ni. It is not seen in the figures shown here due to its smallness relative to the one of Er.
The weak magnetic modulation of Ni was not confirmed by subsequent more accurate studies (see Lynn et al. Phys Rev B. 55,6584 (1997)). [see entry #1.1.58]
;

_active_magnetic_irreps_details
;
1k incommensurate magnetic structure
k-maximal magnetic symmetry (4 possible)
1-dim small irrep as primary irrep
Third and fifth harmonic spin modulations are present for Er corresponding to secondary irreps of the same type allowed for odd harmonics.
The sign of the amplitude of the third harmonic cosine function is not consistent with the “squaring-up” of the modulation, mentioned in the text. Here it is given a minus sign to be consistent with it.
;

_parent_space_group.name_H-M_alt  'I 4/m m m'
_parent_space_group.IT_number             139
_parent_space_group.transform_Pp_abc  'a,b,c;0,0,0'

_cell_modulation_dimension               1

loop_
_cell_wave_vector_seq_id
_cell_wave_vector_x
_cell_wave_vector_y
_cell_wave_vector_z
1 0.552600 0.000000 0.000000


_parent_space_group.child_transform_Pp_abc  'a,b,c;0,0,0'

_space_group.magn_ssg_name  "Immm1'(a00)00ss"
_space_group.magn_point_group_name  "mmm1'"
_space_group.magn_point_group_number  8.2.25
_cell_length_a                 3.5019
_cell_length_b                 3.5019
_cell_length_c                 10.5580
_cell_angle_alpha              90
_cell_angle_beta               90
_cell_angle_gamma              90

loop_
_space_group_symop_magn_ssg_operation.id
_space_group_symop_magn_ssg_operation.algebraic
1 x1,x2,x3,x4,+1
2 -x1,-x2,x3,-x4+1/2,+1
3 -x1,x2,-x3,-x4,+1
4 x1,-x2,-x3,x4+1/2,+1
5 -x1,-x2,-x3,-x4,+1
6 x1,x2,-x3,x4+1/2,+1
7 x1,-x2,x3,x4,+1
8 -x1,x2,x3,-x4+1/2,+1

loop_
_space_group_symop_magn_ssg_centering.id
_space_group_symop_magn_ssg_centering.algebraic
1 x1,x2,x3,x4,+1
2 x1+1/2,x2+1/2,x3+1/2,x4,+1
3 x1,x2,x3,x4+1/2,-1
4 x1+1/2,x2+1/2,x3+1/2,x4+1/2,-1

loop_
_atom_site_label
_atom_site_type_symbol
_atom_site_fract_x
_atom_site_fract_y
_atom_site_fract_z
_atom_site_occupancy
Er1 Er 0 0 0 1
Ni1 Ni 0.5 0 0.25 1
B1 B 0 0 0.3597 1
C1 C 0.5 0.5 0 1


loop_
_atom_site_moment.label
_atom_site_moment.crystalaxis_x
_atom_site_moment.crystalaxis_y
_atom_site_moment.crystalaxis_z
_atom_site_moment.symmform
Er1 0 0 0 0,0,0
Ni1 0 0 0 0,0,0

loop_
_atom_site_Fourier_wave_vector.seq_id
_atom_site_Fourier_wave_vector.q1_coeff
1 1
2 2
3 3
4 4
5 5

loop_
_atom_site_moment_Fourier.atom_site_label
_atom_site_moment_Fourier.axis
_atom_site_moment_Fourier.wave_vector_seq_id
_atom_site_moment_Fourier_param.cos
_atom_site_moment_Fourier_param.sin
_atom_site_moment_Fourier_param.cos_symmform
_atom_site_moment_Fourier_param.sin_symmform
Er1 x 1 0 0 0 0
Er1 y 1 7.8 0 myc1 0
Er1 z 1 0 0 0 0
Er1 x 2 0 0 0 0
Er1 y 2 0 0 0 0
Er1 z 2 0 0 0 0
Er1 x 3 0 0 0 0
Er1 y 3 -0.3 0 myc3 0
Er1 z 3 0 0 0 0
Er1 x 4 0 0 0 0
Er1 y 4 0 0 0 0
Er1 z 4 0 0 0 0
Er1 x 5 0 0 0 0
Er1 y 5 0.16 0 myc5 0
Er1 z 5 0 0 0 0
Ni1 x 1 0 0 0 0
Ni1 y 1 -0.35 0 myc1 0
Ni1 z 1 0 0 0 0


