#\#CIF_2.0
# Created by the Bilbao Crystallographic Server
# http://www.cryst.ehu.es
# Date: 14/06/2019 


data_5yOhtAoR
_audit_creation_date            2019-06-14
_audit_creation_method          "Bilbao Crystallographic Server"

_citation_journal_abbrev        "Journal of Magnetism and Magnetic Materials"
_citation_journal_volume        385
_citation_page_first            243
_citation_page_last             249
_citation_article_id            ?
_citation_year                  2015
_citation_DOI                   10.1016/j.jmmm.2015.03.01

loop_
_citation_author_name
"T.V.Drokina"
"G.A. Petrakovskii"
"M.S. Molokeev"
"S.V. Misyul"
"V.S. Bondarev"
"D.A. Velikanov"
"M. Frontzek"
"J. Schefer"

_atomic_positions_source_database_code_ICSD  .
_atomic_positions_source_other               .

_transition_temperature  18
_experiment_temperature  1.5

loop_
_irrep_id
_irrep_dimension
_irrep_small_dimension
_irrep_direction_type
_irrep_action
_irrep_modes_number
_irrep_presence
mY1+  1  1  .  primary  3  .

_exptl_crystal_magnetic_properties_details
;
NPD
;

_active_magnetic_irreps_details
;
1k magnetic structure
k-maximal symmetry (4 possible)
one single 1-dim irrep
;

_parent_space_group.name_H-M_alt  'P 2_1/c'
_parent_space_group.IT_number                       14
_parent_space_group.transform_Pp_abc  'a,b,c;0,0,0'

loop_
_parent_propagation_vector.id
_parent_propagation_vector.kxkykz
k1 [1/2 0 0]

_parent_space_group.child_transform_Pp_abc  '2a,b,c;0,0,0'
_space_group_magn.transform_BNS_Pp_abc  'a,b,c;0,0,0'



_space_group_magn.number_BNS  14.80
_space_group_magn.name_BNS  "P_a 2_1/c"
_cell_length_a             19.8314(8)
_cell_length_b             8.8161(4)
_cell_length_c             5.4471(3)
_cell_angle_alpha          90.00
_cell_angle_beta           109.509(5)
_cell_angle_gamma          90.00

loop_
_space_group_symop_magn_operation.id
_space_group_symop_magn_operation.xyz
1 x,y,z,+1 
2 -x,y+1/2,-z+1/2,+1 
3 -x,-y,-z,+1 
4 x,-y+1/2,z+1/2,+1 

loop_
_space_group_symop_magn_centering.id
_space_group_symop_magn_centering.xyz
1 x,y,z,+1 
2 x+1/2,y,z,-1 

loop_
_atom_site_label
_atom_site_type_symbol
_atom_site_fract_x
_atom_site_fract_y
_atom_site_fract_z
_atom_site_occupancy
Li1 Li 0.13(2) 0.064(6) 0.26(2) 0.5
Na1 Na 0.13(2) 0.064(6) 0.26(2) 0.5
Fe1 Fe 0.12(2) 0.6525(5) 0.230(1) 1.
Ge1 Ge 0.020(2) 0.340(2) 0.249(3) 1.
Ge2 Ge 0.274(2) 0.844(2) 0.241(2) 1.
O1 O 0.427(2) 0.329(3) 0.158(3) 1.
O2 O 0.052(2) 0.519(2) 0.285(2) 1.
O3 O 0.055(1) 0.279(1) 0.573(2) 1.
O4 O 0.182(2) 0.836(3) 0.116(3) 1.
O5 O 0.311(2) 0.020(2) 0.340(2) 1.
O6 O 0.309(1) 0.710(1) 0.494(2) 1.

loop_
_atom_site_moment.label
_atom_site_moment.crystalaxis_x
_atom_site_moment.crystalaxis_y
_atom_site_moment.crystalaxis_z
_atom_site_moment.symmform
Fe1 4.30(4) 0.0 0.0 mx,my,mz

