#\#CIF_2.0
# Created by the Bilbao Crystallographic Server
# http://www.cryst.ehu.es
# Date: 08/03/2020


data_5yOhtAoR
_audit_creation_date            2020-03-08
_audit_creation_method          "Bilbao Crystallographic Server"

_citation_journal_abbrev        "PHYSICAL REVIEW B"
_citation_journal_volume        94
_citation_page_first            ?
_citation_page_last             ?
_citation_article_id            014411
_citation_year                  2016
_citation_DOI                   10.1103/PhysRevB.94.014411

loop_
_citation_author_name
"J.L. Garcia-Munoz"
"J. Padilla-Pantoja"
"X. Torrelles"
"J. Blasco"
"J. Herrero-Martn"
"B. Bozzo"
"J.A. Rodriguez-Velamazan"





_atomic_positions_source_database_code_ICSD  238241
_atomic_positions_source_other               .

_transition_temperature  120
_experiment_temperature  15

loop_
_irrep_id
_irrep_dimension
_irrep_small_dimension
_irrep_direction_type
_irrep_action
_irrep_modes_number
_irrep_presence
mGM5+  2  2  special  primary  2  .

_exptl_crystal_magnetic_properties_details
;
NPD
Positional structure at 15K from another work (icsd 238241)
Phase that results of a structural transformation accompanied of a spin reorientation.
Ferromagnetic along (1,1,0) in the parent tetragonal setting
;

_active_magnetic_irreps_details
;
1k magnetic structure
k-maximal magnetic symmetry (4 possible)
1-dim irrep primary
;

_parent_space_group.name_H-M_alt  'I 4/m c m'
_parent_space_group.IT_number                       140
_parent_space_group.transform_Pp_abc  'a,b,c;0,0,0'

loop_
_parent_propagation_vector.id
_parent_propagation_vector.kxkykz
k1 [0 0 0]

_parent_space_group.child_transform_Pp_abc  'a,b,c;0,0,0'
_space_group_magn.transform_BNS_Pp_abc  '-c,a-b,-a-b;0,1/2,0'



_space_group_magn.number_BNS  69.524
_space_group_magn.name_BNS  "F m' m' m"
_cell_length_a             5.35850
_cell_length_b             5.35850
_cell_length_c             7.70930
_cell_angle_alpha          90.00
_cell_angle_beta           90.00
_cell_angle_gamma          90.00

loop_
_space_group_symop_magn_operation.id
_space_group_symop_magn_operation.xyz
1 x,y,z,+1
2 y+1/2,x+1/2,-z,+1
3 -x,-y,-z,+1
4 -y+1/2,-x+1/2,z,+1
5 -x,-y,z,-1
6 -y+1/2,-x+1/2,-z,-1
7 x,y,-z,-1
8 y+1/2,x+1/2,z,-1

loop_
_space_group_symop_magn_centering.id
_space_group_symop_magn_centering.xyz
1 x,y,z,+1
2 x+1/2,y+1/2,z+1/2,+1

loop_
_atom_site_label
_atom_site_type_symbol
_atom_site_fract_x
_atom_site_fract_y
_atom_site_fract_z
_atom_site_occupancy
Pr1 Pr 0.00000 0.50000 0.25000 0.5
Sr1 Sr 0.00000 0.50000 0.25000 0.5
Co1 Co 0.00000 0.00000 0.00000 1.
O1 O 0.00000 0.00000 0.25000 1.
O2_1 O 0.28490 0.78490 0.00000 1.
O2_2 O  0.21510 0.28490 0.00000 1.

loop_
_atom_site_moment.label
_atom_site_moment.crystalaxis_x
_atom_site_moment.crystalaxis_y
_atom_site_moment.crystalaxis_z
_atom_site_moment.symmform
Co1 1.32(3) 1.32 0.0 mx,my,0


