#\#CIF_2.0
# Created by the Bilbao Crystallographic Server
# http://www.cryst.ehu.es
# Date: 28/04/2021 

data_5yOhtAoR
_audit_creation_date            2021-04-28
_audit_creation_method          "Bilbao Crystallographic Server"

_citation_journal_abbrev        "J. Mater. Chem."
_citation_journal_volume        13
_citation_page_first            1758
_citation_page_last             1763
_citation_article_id            .
_citation_year                  2003
_citation_DOI                   10.1039/b301935g

loop_
_citation_author_name
"Y. Doi"
"Y. Hinatsu"
"A. Nakamura"
"Y. Ishii"
"Y. Morii"

_atomic_positions_source_database_code_ICSD  55715
_atomic_positions_source_other               .

_temperature_position_structure         293
_temperature_atom_positions             .              
_temperature_non-magn_atom_positions    .
_temperature_cell_parameters            .


_transition_temperature  36
_experiment_temperature  10

loop_
_irrep_id
_irrep_dimension
_irrep_small_dimension
_irrep_direction_type
_irrep_action
_irrep_modes_number
_irrep_presence
mGM1+  1  1  .  primary  6  .


_exptl_crystal_magnetic_properties_details
;
NPD
Non-standard parent setting P12_1/n1
Position structure from a measurement at room temperature
FM along b
;

_active_magnetic_irreps_details
;
1k magnetic structure
k-maximal magnetic symmetry
1-dim irrep as primary
;

_parent_space_group.name_H-M_alt  'P 2_1/n'
_parent_space_group.IT_number                       14
_parent_space_group.transform_Pp_abc  'a,b,-a+c;0,0,0'

loop_
_parent_propagation_vector.id
_parent_propagation_vector.kxkykz
k1 [0 0 0]

_parent_space_group.child_transform_Pp_abc  'a,b,c;0,0,0'
_space_group_magn.transform_BNS_Pp_abc  'a,b,-a+c;0,0,0'

_space_group_magn.number_BNS  14.75
_space_group_magn.name_BNS  "P 2_1/c"
_cell_length_a             5.75530
_cell_length_b             5.75420
_cell_length_c             8.13320
_cell_angle_alpha          90.00
_cell_angle_beta           90.16
_cell_angle_gamma          90.00

loop_
_space_group_symop_magn_operation.id
_space_group_symop_magn_operation.xyz
1 x,y,z,+1 
2 -x+1/2,y+1/2,-z+1/2,+1 
3 -x,-y,-z,+1 
4 x+1/2,-y+1/2,z+1/2,+1 

loop_
_space_group_symop_magn_centering.id
_space_group_symop_magn_centering.xyz
1 x,y,z,+1 

loop_
_atom_site_label
_atom_site_type_symbol
_atom_site_fract_x
_atom_site_fract_y
_atom_site_fract_z
Sr1 Sr 0.00190 0.02460 0.24850
Tm1 Tm 0.50000 0.00000 0.00000
Ru1 Ru 0.00000 0.50000 0.00000
O1 O 0.26580 0.29550 0.03260
O2 O 0.20260 0.76960 0.03220
O3 O 0.93660 0.48900 0.23830

loop_
_atom_site_moment.label
_atom_site_moment.crystalaxis_x
_atom_site_moment.crystalaxis_y
_atom_site_moment.crystalaxis_z
_atom_site_moment.symmform
_atom_site_moment.magnitude
Tm1 0.00000 0.00000 1.4(1) mx,my,mz  1.4(1)
Ru1 0.00000 0.00000 -1.5(1) mx,my,mz  1.5(1)

