#\#CIF_2.0
# Created by the Bilbao Crystallographic Server
# http://www.cryst.ehu.es
# Date: 25/05/2021 

data_5yOhtAoR
_audit_creation_date            2021-05-25
_audit_creation_method          "Bilbao Crystallographic Server"

_citation_journal_abbrev        "PHYSICAL REVIEW MATERIALS"
_citation_journal_volume        3
_citation_page_first            .
_citation_page_last             .
_citation_article_id            114411
_citation_year                  2019
_citation_DOI                   10.1103/PhysRevMaterials.3.114411

loop_
_citation_author_name
"M. A. Khan"
"Q. Zhang"
"J.-K. Bao"
"R. S. Fishman"
"A. S. Botana"
"Y. Choi"
"G. Fabbris"
"D. Haskel"
"J. Singleton"
"J. F. Mitchell"

_atomic_positions_source_database_code_ICSD  .
_atomic_positions_source_other               .

_temperature_position_structure         293
_temperature_atom_positions             .              
_temperature_non-magn_atom_positions    .
_temperature_cell_parameters            .

_transition_temperature  12.5
_experiment_temperature  10

loop_
_irrep_id
_irrep_dimension
_irrep_small_dimension
_irrep_direction_type
_irrep_action
_irrep_modes_number
_irrep_presence
mGM4+  1  1  .  primary  2  .


_exptl_crystal_magnetic_properties_details
;
NPD
FM along b. 
Weak FM canting along b allowed by the MSG is not detected. See #0.707 for a NSD study where it is observed.
;

_active_magnetic_irreps_details
;
1k magnetic structure
k-maximal magnetic symmetry
1-dim irrep as primary
;

_parent_space_group.name_H-M_alt  'C m c m'
_parent_space_group.IT_number                       63
_parent_space_group.transform_Pp_abc  'a,b,c;0,0,0'

loop_
_parent_propagation_vector.id
_parent_propagation_vector.kxkykz
k1 [0 0 0]

_parent_space_group.child_transform_Pp_abc  'a,b,c;0,0,0'
_space_group_magn.transform_BNS_Pp_abc  'a,b,c;0,0,0'

_space_group_magn.number_BNS  63.464
_space_group_magn.name_BNS  "C m' c m'"
_cell_length_a             12.98600
_cell_length_b             7.53250
_cell_length_c             9.43490
_cell_angle_alpha          90.00
_cell_angle_beta           90.00
_cell_angle_gamma          90.00

loop_
_space_group_symop_magn_operation.id
_space_group_symop_magn_operation.xyz
1 x,y,z,+1 
2 -x,y,-z+1/2,+1 
3 -x,-y,-z,+1 
4 x,-y,z+1/2,+1 
5 x,-y,-z,-1 
6 -x,-y,z+1/2,-1 
7 -x,y,z,-1 
8 x,y,-z+1/2,-1 

loop_
_space_group_symop_magn_centering.id
_space_group_symop_magn_centering.xyz
1 x,y,z,+1 
2 x+1/2,y+1/2,z,+1 

loop_
_atom_site_label
_atom_site_type_symbol
_atom_site_fract_x
_atom_site_fract_y
_atom_site_fract_z
Tb1 Tb 0.33600 0.33360 0.25000
Ir1 Ir 0.32830 0.00000 0.00000
Ir2 Ir 0.00000 0.00000 0.00000
Ga1 Ga 0.16710 0.16770 0.07870
Ga2 Ga 0.10370 0.44270 0.25000
Ga3 Ga 0.00000 0.33310 0.56330
Ga4 Ga 0.00000 0.12930 0.25000

loop_
_atom_site_moment.label
_atom_site_moment.crystalaxis_x
_atom_site_moment.crystalaxis_y
_atom_site_moment.crystalaxis_z
_atom_site_moment.symmform
_atom_site_moment.magnitude
Tb1 7.5(2) 0.0 0.00000 mx,my,0        7.5(2)
Ir1 0.00000 0.00000 0.00000 0,my,mz   0.0
Ir2 0.00000 0.00000 0.00000 0,my,mz   0.0

